496
Lattice="24.469499999999996 0.0 0.0 0.0 24.469499999999996 0.0 0.0 0.0 48.93899999999999" Properties=species:S:1:pos:R:3:spacegroup_kinds:I:1:forces:R:3:energies:R:1 energy=85.58095370728891 free_energy=85.58095370728891 pbc="T T T"
Au      -9.85807274      -1.98077476      -8.08944182        0      -0.01750839      -0.01016219       0.00618302       0.55325560
Au      -9.94241606      -3.95514569      -2.04365448        0       0.00877894      -0.01333767       0.00718987       0.45441348
Au      -9.99908271      -1.97642081      -3.99074317        0       0.00955869      -0.00901763      -0.00130924       0.35763599
Au      -9.93382173      -3.94042961       2.04916555        0       0.00521741      -0.00687980      -0.00867776       0.45398446
Au     -10.02256586      -2.03263447      -0.01475828        0       0.00529353       0.00405301      -0.00153740       0.28005324
Au      -9.96599811      -1.96015024       4.00838641        0      -0.00393864      -0.00981427      -0.00281047       0.37230911
Au      -9.96599811      -0.07897476      -6.04751141        0      -0.00393864       0.00981427       0.00281047       0.37230911
Au     -10.02256586      -0.00649053      -2.02436672        0       0.00529353      -0.00405301       0.00153740       0.28005324
Au      -9.93382173       1.90130461      -4.08829055        0       0.00521741       0.00687980       0.00867776       0.45398446
Au      -9.99908271      -0.06270419       1.95161817        0       0.00955869       0.00901763       0.00130924       0.35763599
Au      -9.94241606       1.91602069       0.00452948        0       0.00877894       0.01333767      -0.00718987       0.45441348
Au      -9.85807274      -0.05835024       6.05031682        0      -0.01750839       0.01016219      -0.00618302       0.55325560
Au      -7.92187588      -5.97781156     -10.22445090        0      -0.00902356      -0.00550577       0.01110519       0.45284848
Au      -5.97781156      -7.92187588     -10.22445090        0      -0.00550577      -0.00902356       0.01110519       0.45284848
Au      -6.04370176      -6.04370176     -12.21632182        0       0.00804929       0.00804929       0.00099822       0.22249690
Au      -7.94026892      -6.00419907      -6.12527680        0      -0.01913597      -0.00632983       0.00042930       0.44596286
Au      -6.00419907      -7.94026892      -6.12527680        0      -0.00632983      -0.01913597       0.00042930       0.44596286
Au      -6.08767008      -6.08767008      -8.15402087        0       0.00298232       0.00298232      -0.00014363       0.10340671
Au      -8.01696764      -5.99510401      -2.04887522        0       0.00661283      -0.01177354       0.00255484       0.36449299
Au      -5.99510401      -8.01696764      -2.04887522        0      -0.01177354       0.00661283       0.00255484       0.36449299
Au      -6.09473016      -6.09473016      -4.07283830        0      -0.00462500      -0.00462500       0.01645491       0.09192520
Au      -8.02063550      -5.98491272       2.05464019        0       0.00541055      -0.01376642       0.00134947       0.36636813
Au      -5.98491272      -8.02063550       2.05464019        0      -0.01376642       0.00541055       0.00134947       0.36636813
Au      -6.11178595      -6.11178595       0.00562516        0      -0.00718696      -0.00718696       0.00300369       0.08272891
Au      -7.91679855      -5.98510186       6.16149184        0      -0.01224378      -0.00801219       0.00393377       0.45167867
Au      -5.98510186      -7.91679855       6.16149184        0      -0.00801219      -0.01224378       0.00393377       0.45167867
Au      -6.09928627      -6.09928627       4.06758599        0      -0.00854159      -0.00854159       0.00246656       0.09122139
Au      -6.05232027      -6.05232027       8.17345694        0       0.00335317       0.00335317       0.00429143       0.21660711
Au      -5.91935538      -5.91935538      12.20984201        0      -0.00734525      -0.00734525      -0.01929356       0.54337943
Au      -7.89926666      -2.04013514     -14.12805817        0      -0.02639779       0.00371667       0.00895992       0.45821894
Au      -6.04809097      -4.05161162     -14.22543127        0      -0.00125884       0.00424328       0.01703297       0.21910694
Au      -5.99846560      -2.05185031     -16.15354491        0      -0.00985597       0.00412207       0.01179941       0.36875210
Au      -7.95490297      -4.00486787     -12.16999376        0      -0.00983345      -0.00325163       0.00813572       0.36196719
Au      -8.09365357      -2.03198930     -10.17209340        0      -0.00556253      -0.00425398       0.01400099       0.20511114
Au      -6.04936711      -4.02493790     -10.14558079        0       0.00168376       0.00317808       0.00435184       0.03295086
Au      -6.02880529      -2.02237478     -12.17494072        0      -0.00400261       0.00257352       0.00781089       0.05018654
Au      -8.08921979      -4.06920739      -8.16561669        0      -0.00435588       0.00200315       0.00827461       0.21433761
Au      -8.09446721      -2.08611482      -6.07603380        0       0.00848291      -0.00216923       0.00861888       0.09773588
Au      -6.06579245      -4.05185852      -6.11509331        0       0.00565585      -0.00041836       0.00456101       0.02318076
Au      -6.12472912      -2.02171663      -8.13253377        0       0.00846494       0.00256857       0.00639622      -0.00373224
Au      -8.11413890      -4.08537912      -4.07741284        0       0.00407997       0.00090641      -0.00544159       0.14841550
Au      -8.04789768      -2.02859143      -2.02904570        0       0.01590029       0.00609263       0.00907824       0.04149873
Au      -6.07416881      -4.06993725      -2.03875925        0       0.01139776       0.00772115       0.00078216       0.00837913
Au      -6.05822880      -2.05274557      -4.07262032        0      -0.00930020      -0.00184372       0.00029526      -0.00066953
Au      -8.10385445      -4.08680770      -0.00013597        0       0.01370648      -0.00981158      -0.00113526       0.09588297
Au      -8.04027127      -2.02359614       2.02220094        0       0.01313878       0.00958196      -0.00101586       0.05039550
Au      -6.07678316      -4.06496690       2.04680502        0       0.00962908       0.00383755      -0.00760449       0.00853884
Au      -6.03879029      -2.04271340      -0.00383911        0      -0.01657717      -0.00920427       0.00164713       0.00005273
Au      -8.11218783      -4.07530740       4.09464208        0       0.00042887       0.00560796       0.00393618       0.14865425
Au      -8.11064062      -2.07728504       6.11358594        0       0.00917808      -0.00266205      -0.00835534       0.14990559
Au      -6.04531013      -4.04012588       6.08945639        0      -0.00527383      -0.00137501      -0.00260139       0.03293429
Au      -6.09362067      -2.02582858       4.07775022        0      -0.00774165      -0.00353092      -0.00472943      -0.00397392
Au      -7.95894201      -4.02358119       8.12487682        0      -0.01320146      -0.00179959       0.00238547       0.36512855
Au      -7.97009491      -1.98471486      10.10517747        0      -0.01303608      -0.00613685       0.00145365       0.36555841
Au      -6.08963055      -4.05401987      10.18664531        0      -0.00923316      -0.00236579      -0.00904039       0.14424276
Au      -6.06608335      -2.02564624       8.11284857        0       0.00484912       0.00052581       0.00491683       0.02737578
Au      -5.97151054      -4.05273765      14.14895991        0      -0.01555303      -0.00986629      -0.03049659       0.45397958
Au      -6.10062021      -2.05046050      12.19246175        0      -0.00596272      -0.00869117      -0.00433981       0.14441583
Au      -6.10062021       0.01133550     -14.23158675        0      -0.00596272       0.00869117       0.00433981       0.14441583
Au      -5.97151054       2.01361265     -16.18808491        0      -0.01555303       0.00986629       0.03049659       0.45397958
Au      -7.97009491      -0.05441014     -12.14430247        0      -0.01303608       0.00613685      -0.00145365       0.36555841
Au      -7.95894201       1.98445619     -10.16400182        0      -0.01320146       0.00179959      -0.00238547       0.36512855
Au      -6.06608335      -0.01347876     -10.15197357        0       0.00484912      -0.00052581      -0.00491683       0.02737578
Au      -6.08963055       2.01489487     -12.22577031        0      -0.00923316       0.00236579       0.00904039       0.14424276
Au      -8.11064062       0.03816004      -8.15271094        0       0.00917808       0.00266205       0.00835534       0.14990559
Au      -8.11218783       2.03618240      -6.13376708        0       0.00042887      -0.00560796      -0.00393618       0.14865425
Au      -6.09362067      -0.01329642      -6.11687522        0      -0.00774165       0.00353092       0.00472943      -0.00397392
Au      -6.04531013       2.00100088      -8.12858139        0      -0.00527383       0.00137501       0.00260139       0.03293429
Au      -8.04027127      -0.01552886      -4.06132594        0       0.01313878      -0.00958196       0.00101586       0.05039550
Au      -8.10385445       2.04768270      -2.03898903        0       0.01370648       0.00981158       0.00113526       0.09588297
Au      -6.03879029       0.00358840      -2.03528589        0      -0.01657717       0.00920427      -0.00164713       0.00005273
Au      -6.07678316       2.02584190      -4.08593002        0       0.00962908      -0.00383755       0.00760449       0.00853884
Au      -8.04789768      -0.01053357      -0.01007930        0       0.01590029      -0.00609263      -0.00907824       0.04149873
Au      -8.11413890       2.04625412       2.03828784        0       0.00407997      -0.00090641       0.00544159       0.14841550
Au      -6.05822880       0.01362057       2.03349532        0      -0.00930020       0.00184372      -0.00029526      -0.00066953
Au      -6.07416881       2.03081225      -0.00036575        0       0.01139776      -0.00772115      -0.00078216       0.00837913
Au      -8.09446721       0.04698982       4.03690880        0       0.00848291       0.00216923      -0.00861888       0.09773588
Au      -8.08921979       2.03008239       6.12649169        0      -0.00435588      -0.00200315      -0.00827461       0.21433761
Au      -6.12472912      -0.01740837       6.09340877        0       0.00846494      -0.00256857      -0.00639622      -0.00373224
Au      -6.06579245       2.01273352       4.07596831        0       0.00565585       0.00041836      -0.00456101       0.02318076
Au      -8.09365357      -0.00713570       8.13296840        0      -0.00556253       0.00425398      -0.01400099       0.20511114
Au      -7.95490297       1.96574287      10.13086876        0      -0.00983345       0.00325163      -0.00813572       0.36196719
Au      -6.02880529      -0.01675022      10.13581572        0      -0.00400261      -0.00257352      -0.00781089       0.05018654
Au      -6.04936711       1.98581290       8.10645579        0       0.00168376      -0.00317808      -0.00435184       0.03295086
Au      -7.89926666       0.00101014      12.08893317        0      -0.02639779      -0.00371667      -0.00895992       0.45821894
Au      -5.99846560       0.01272531      14.11441991        0      -0.00985597      -0.00412207      -0.01179941       0.36875210
Au      -6.04809097       2.01248662      12.18630627        0      -0.00125884      -0.00424328      -0.01703297       0.21910694
Au      -5.91935538       3.88023038     -14.24896701        0      -0.00734525       0.00734525       0.01929356       0.54337943
Au      -6.05232027       4.01319527     -10.21258194        0       0.00335317      -0.00335317      -0.00429143       0.21660711
Au      -7.91679855       3.94597686      -8.20061684        0      -0.01224378       0.00801219      -0.00393377       0.45167867
Au      -6.09928627       4.06016127      -6.10671099        0      -0.00854159       0.00854159      -0.00246656       0.09122139
Au      -5.98510186       5.87767355      -8.20061684        0      -0.00801219       0.01224378      -0.00393377       0.45167867
Au      -8.02063550       3.94578772      -4.09376519        0       0.00541055       0.01376642      -0.00134947       0.36636813
Au      -6.11178595       4.07266095      -2.04475016        0      -0.00718696       0.00718696      -0.00300369       0.08272891
Au      -5.98491272       5.98151050      -4.09376519        0      -0.01376642      -0.00541055      -0.00134947       0.36636813
Au      -8.01696764       3.95597901       0.00975022        0       0.00661283       0.01177354      -0.00255484       0.36449299
Au      -6.09473016       4.05560516       2.03371330        0      -0.00462500       0.00462500      -0.01645491       0.09192520
Au      -5.99510401       5.97784264       0.00975022        0      -0.01177354      -0.00661283      -0.00255484       0.36449299
Au      -7.94026892       3.96507407       4.08615180        0      -0.01913597       0.00632983      -0.00042930       0.44596286
Au      -6.08767008       4.04854508       6.11489587        0       0.00298232      -0.00298232       0.00014363       0.10340671
Au      -6.00419907       5.90114392       4.08615180        0      -0.00632983       0.01913597      -0.00042930       0.44596286
Au      -7.92187588       3.93868656       8.18532590        0      -0.00902356       0.00550577      -0.01110519       0.45284848
Au      -6.04370176       4.00457676      10.17719682        0       0.00804929      -0.00804929      -0.00099822       0.22249690
Au      -5.97781156       5.88275088       8.18532590        0      -0.00550577       0.00902356      -0.01110519       0.45284848
Au      -1.98077476      -9.85807274      -8.08944182        0      -0.01016219      -0.01750839       0.00618302       0.55325560
Au      -3.95514569      -9.94241606      -2.04365448        0      -0.01333767       0.00877894       0.00718987       0.45441348
Au      -1.97642081      -9.99908271      -3.99074317        0      -0.00901763       0.00955869      -0.00130924       0.35763599
Au      -3.94042961      -9.93382173       2.04916555        0      -0.00687980       0.00521741      -0.00867776       0.45398446
Au      -2.03263447     -10.02256586      -0.01475828        0       0.00405301       0.00529353      -0.00153740       0.28005324
Au      -1.96015024      -9.96599811       4.00838641        0      -0.00981427      -0.00393864      -0.00281047       0.37230911
Au      -4.05161162      -6.04809097     -14.22543127        0       0.00424328      -0.00125884       0.01703297       0.21910694
Au      -2.04013514      -7.89926666     -14.12805817        0       0.00371667      -0.02639779       0.00895992       0.45821894
Au      -2.05185031      -5.99846560     -16.15354491        0       0.00412207      -0.00985597       0.01179941       0.36875210
Au      -4.00486787      -7.95490297     -12.16999376        0      -0.00325163      -0.00983345       0.00813572       0.36196719
Au      -4.02493790      -6.04936711     -10.14558079        0       0.00317808       0.00168376       0.00435184       0.03295086
Au      -2.03198930      -8.09365357     -10.17209340        0      -0.00425398      -0.00556253       0.01400099       0.20511114
Au      -2.02237478      -6.02880529     -12.17494072        0       0.00257352      -0.00400261       0.00781089       0.05018654
Au      -4.06920739      -8.08921979      -8.16561669        0       0.00200315      -0.00435588       0.00827461       0.21433761
Au      -4.05185852      -6.06579245      -6.11509331        0      -0.00041836       0.00565585       0.00456101       0.02318076
Au      -2.08611482      -8.09446721      -6.07603380        0      -0.00216923       0.00848291       0.00861888       0.09773588
Au      -2.02171663      -6.12472912      -8.13253377        0       0.00256857       0.00846494       0.00639622      -0.00373224
Au      -4.08537912      -8.11413890      -4.07741284        0       0.00090641       0.00407997      -0.00544159       0.14841550
Au      -4.06993725      -6.07416881      -2.03875925        0       0.00772115       0.01139776       0.00078216       0.00837913
Au      -2.02859143      -8.04789768      -2.02904570        0       0.00609263       0.01590029       0.00907824       0.04149873
Au      -2.05274557      -6.05822880      -4.07262032        0      -0.00184372      -0.00930020       0.00029526      -0.00066953
Au      -4.08680770      -8.10385445      -0.00013597        0      -0.00981158       0.01370648      -0.00113526       0.09588297
Au      -4.06496690      -6.07678316       2.04680502        0       0.00383755       0.00962908      -0.00760449       0.00853884
Au      -2.02359614      -8.04027127       2.02220094        0       0.00958196       0.01313878      -0.00101586       0.05039550
Au      -2.04271340      -6.03879029      -0.00383911        0      -0.00920427      -0.01657717       0.00164713       0.00005273
Au      -4.07530740      -8.11218783       4.09464208        0       0.00560796       0.00042887       0.00393618       0.14865425
Au      -4.04012588      -6.04531013       6.08945639        0      -0.00137501      -0.00527383      -0.00260139       0.03293429
Au      -2.07728504      -8.11064062       6.11358594        0      -0.00266205       0.00917808      -0.00835534       0.14990559
Au      -2.02582858      -6.09362067       4.07775022        0      -0.00353092      -0.00774165      -0.00472943      -0.00397392
Au      -4.02358119      -7.95894201       8.12487682        0      -0.00179959      -0.01320146       0.00238547       0.36512855
Au      -4.05401987      -6.08963055      10.18664531        0      -0.00236579      -0.00923316      -0.00904039       0.14424276
Au      -1.98471486      -7.97009491      10.10517747        0      -0.00613685      -0.01303608       0.00145365       0.36555841
Au      -2.02564624      -6.06608335       8.11284857        0       0.00052581       0.00484912       0.00491683       0.02737578
Au      -4.05273765      -5.97151054      14.14895991        0      -0.00986629      -0.01555303      -0.03049659       0.45397958
Au      -2.05046050      -6.10062021      12.19246175        0      -0.00869117      -0.00596272      -0.00433981       0.14441583
Au      -4.01041170      -2.05445725     -18.17738237        0      -0.00822404      -0.00632157       0.02617611       0.37121898
Au      -2.05445725      -4.01041170     -18.17738237        0      -0.00632157      -0.00822404       0.02617611       0.37121898
Au      -1.99326939      -1.99326939     -19.99189659        0      -0.01104751      -0.01104751       0.01738354       0.55688401
Au      -4.03881359      -4.03881359     -16.23190609        0      -0.02169265      -0.02169265       0.01136963       0.21415243
Au      -4.05442289      -2.02565725     -14.22323087        0       0.01496602      -0.00412915       0.00126962       0.00777313
Au      -2.02565725      -4.05442289     -14.22323087        0      -0.00412915       0.01496602       0.00126962       0.00777313
Au      -2.02784692      -2.02784692     -16.26677599        0       0.00728137       0.00728137       0.02043241       0.01219263
Au      -4.05232361      -4.05232361     -12.20132907        0       0.00406692       0.00406692      -0.00468510      -0.00057569
Au      -4.03190180      -2.02094056     -10.13781185        0       0.00614708      -0.00228054      -0.00749976       0.00162612
Au      -2.02094056      -4.03190180     -10.13781185        0      -0.00228054       0.00614708      -0.00749976       0.00162612
Au      -2.03061727      -2.03061727     -12.18486197        0       0.00631233       0.00631233      -0.00461727      -0.00162690
Au      -4.03663891      -4.03663891      -8.11738701        0      -0.02183782      -0.02183782      -0.00153519      -0.00038170
Au      -4.05452261      -2.02291456      -6.10597593        0      -0.00987138      -0.00433546       0.00460255      -0.00003070
Au      -2.02291456      -4.05452261      -6.10597593        0      -0.00433546      -0.00987138       0.00460255      -0.00003070
Au      -2.01914270      -2.01914270      -8.11870903        0      -0.01718601      -0.01718601      -0.00333281       0.00462468
Au      -4.04924151      -4.04924151      -4.07309232        0      -0.02342640      -0.02342640      -0.00288490       0.00032451
Au      -4.04105763      -2.03290655      -2.03652259        0      -0.02455570      -0.00703131       0.00235675       0.00071996
Au      -2.03290655      -4.04105763      -2.03652259        0      -0.00703131      -0.02455570       0.00235675       0.00071996
Au      -2.03017647      -2.03017647      -4.07006800        0      -0.01396183      -0.01396183       0.00574576       0.00040055
Au      -4.06070804      -4.06070804       0.00430210        0      -0.01549554      -0.01549554       0.00134011       0.00017527
Au      -4.05370122      -2.02704684       2.03368226        0      -0.01763703      -0.00884132      -0.00374615      -0.00044667
Au      -2.02704684      -4.05370122       2.03368226        0      -0.00884132      -0.01763703      -0.00374615      -0.00044667
Au      -2.03021790      -2.03021790       0.00064842        0      -0.01028726      -0.01028726      -0.00219718      -0.00170944
Au      -4.04355848      -4.04355848       4.04803991        0      -0.02823524      -0.02823524       0.00764301       0.00041548
Au      -4.04347294      -2.02868268       6.08479414        0      -0.00686165       0.00277601       0.00163748       0.00032816
Au      -2.02868268      -4.04347294       6.08479414        0       0.00277601      -0.00686165       0.00163748       0.00032816
Au      -2.02868229      -2.02868229       4.04847009        0      -0.01499179      -0.01499179       0.00532631       0.00327652
Au      -4.06349413      -4.06349413       8.15437273        0       0.00236345       0.00236345       0.00386280      -0.00374584
Au      -4.05706316      -2.03932251      10.15409717        0       0.00335634       0.01298422       0.00034012      -0.00054280
Au      -2.03932251      -4.05706316      10.15409717        0       0.01298422       0.00335634       0.00034012      -0.00054280
Au      -2.03442654      -2.03442654       8.12462739        0       0.00223574       0.00223574       0.00049491       0.00027154
Au      -4.01496029      -4.01496029      12.17862379        0       0.00905574       0.00905574      -0.01363628       0.05509880
Au      -4.08375940      -2.00990700      14.21466753        0      -0.01869405      -0.00133488      -0.01999547       0.09522812
Au      -2.00990700      -4.08375940      14.21466753        0      -0.00133488      -0.01869405      -0.01999547       0.09522812
Au      -2.01950981      -2.01950981      12.18430961        0      -0.00430047      -0.00430047       0.00695844       0.00022304
Au      -4.05086575      -4.05086575      16.01637021        0      -0.00529830      -0.00529830      -0.00711465       0.54819751
Au      -2.08687957      -2.08687957      16.20665426        0      -0.00834492      -0.00834492      -0.02220463       0.18045937
Au      -4.05086575       2.01174075     -18.05549521        0      -0.00529830       0.00529830       0.00711465       0.54819751
Au      -2.08687957       0.04775457     -18.24577926        0      -0.00834492       0.00834492       0.02220463       0.18045937
Au      -4.08375940      -0.02921800     -16.25379253        0      -0.01869405       0.00133488       0.01999547       0.09522812
Au      -4.01496029       1.97583529     -14.21774879        0       0.00905574      -0.00905574       0.01363628       0.05509880
Au      -2.01950981      -0.01961519     -14.22343461        0      -0.00430047       0.00430047      -0.00695844       0.00022304
Au      -2.00990700       2.04463440     -16.25379253        0      -0.00133488       0.01869405       0.01999547       0.09522812
Au      -4.05706316       0.00019751     -12.19322217        0       0.00335634      -0.01298422      -0.00034012      -0.00054280
Au      -4.06349413       2.02436913     -10.19349773        0       0.00236345      -0.00236345      -0.00386280      -0.00374584
Au      -2.03442654      -0.00469846     -10.16375239        0       0.00223574      -0.00223574      -0.00049491       0.00027154
Au      -2.03932251       2.01793816     -12.19322217        0       0.01298422      -0.00335634      -0.00034012      -0.00054280
Au      -4.04347294      -0.01044232      -8.12391914        0      -0.00686165      -0.00277601      -0.00163748       0.00032816
Au      -4.04355848       2.00443348      -6.08716491        0      -0.02823524       0.02823524      -0.00764301       0.00041548
Au      -2.02868229      -0.01044271      -6.08759509        0      -0.01499179       0.01499179      -0.00532631       0.00327652
Au      -2.02868268       2.00434794      -8.12391914        0       0.00277601       0.00686165      -0.00163748       0.00032816
Au      -4.05370122      -0.01207816      -4.07280726        0      -0.01763703       0.00884132       0.00374615      -0.00044667
Au      -4.06070804       2.02158304      -2.04342710        0      -0.01549554       0.01549554      -0.00134011       0.00017527
Au      -2.03021790      -0.00890710      -2.03977342        0      -0.01028726       0.01028726       0.00219718      -0.00170944
Au      -2.02704684       2.01457622      -4.07280726        0      -0.00884132       0.01763703       0.00374615      -0.00044667
Au      -4.04105763      -0.00621845      -0.00260241        0      -0.02455570       0.00703131      -0.00235675       0.00071996
Au      -4.04924151       2.01011651       2.03396732        0      -0.02342640       0.02342640       0.00288490       0.00032451
Au      -2.03017647      -0.00894853       2.03094300        0      -0.01396183       0.01396183      -0.00574576       0.00040055
Au      -2.03290655       2.00193263      -0.00260241        0      -0.00703131       0.02455570      -0.00235675       0.00071996
Au      -4.05452261      -0.01621044       4.06685093        0      -0.00987138       0.00433546      -0.00460255      -0.00003070
Au      -4.03663891       1.99751391       6.07826201        0      -0.02183782       0.02183782       0.00153519      -0.00038170
Au      -2.01914270      -0.01998230       6.07958403        0      -0.01718601       0.01718601       0.00333281       0.00462468
Au      -2.02291456       2.01539761       4.06685093        0      -0.00433546       0.00987138      -0.00460255      -0.00003070
Au      -4.03190180      -0.01818444       8.09868685        0       0.00614708       0.00228054       0.00749976       0.00162612
Au      -4.05232361       2.01319861      10.16220407        0       0.00406692      -0.00406692       0.00468510      -0.00057569
Au      -2.03061727      -0.00850773      10.14573697        0       0.00631233      -0.00631233       0.00461727      -0.00162690
Au      -2.02094056       1.99277680       8.09868685        0      -0.00228054      -0.00614708       0.00749976       0.00162612
Au      -4.05442289      -0.01346775      12.18410587        0       0.01496602       0.00412915      -0.00126962       0.00777313
Au      -4.03881359       1.99968859      14.19278109        0      -0.02169265       0.02169265      -0.01136963       0.21415243
Au      -2.02784692      -0.01127808      14.22765099        0       0.00728137      -0.00728137      -0.02043241       0.01219263
Au      -2.02565725       2.01529789      12.18410587        0      -0.00412915      -0.01496602      -0.00126962       0.00777313
Au      -4.01041170       0.01533225      16.13825737        0      -0.00822404       0.00632157      -0.02617611       0.37121898
Au      -1.99326939      -0.04585561      17.95277159        0      -0.01104751       0.01104751      -0.01738354       0.55688401
Au      -2.05445725       1.97128670      16.13825737        0      -0.00632157       0.00822404      -0.02617611       0.37121898
Au      -4.05273765       3.93238554     -16.18808491        0      -0.00986629       0.01555303       0.03049659       0.45397958
Au      -2.05046050       4.06149521     -14.23158675        0      -0.00869117       0.00596272       0.00433981       0.14441583
Au      -4.05401987       4.05050555     -12.22577031        0      -0.00236579       0.00923316       0.00904039       0.14424276
Au      -4.02358119       5.91981701     -10.16400182        0      -0.00179959       0.01320146      -0.00238547       0.36512855
Au      -2.02564624       4.02695835     -10.15197357        0       0.00052581      -0.00484912      -0.00491683       0.02737578
Au      -1.98471486       5.93096991     -12.14430247        0      -0.00613685       0.01303608      -0.00145365       0.36555841
Au      -4.04012588       4.00618513      -8.12858139        0      -0.00137501       0.00527383       0.00260139       0.03293429
Au      -4.07530740       6.07306283      -6.13376708        0       0.00560796      -0.00042887      -0.00393618       0.14865425
Au      -2.02582858       4.05449567      -6.11687522        0      -0.00353092       0.00774165       0.00472943      -0.00397392
Au      -2.07728504       6.07151562      -8.15271094        0      -0.00266205      -0.00917808       0.00835534       0.14990559
Au      -4.06496690       4.03765816      -4.08593002        0       0.00383755      -0.00962908       0.00760449       0.00853884
Au      -4.08680770       6.06472945      -2.03898903        0      -0.00981158      -0.01370648       0.00113526       0.09588297
Au      -2.04271340       3.99966529      -2.03528589        0      -0.00920427       0.01657717      -0.00164713       0.00005273
Au      -2.02359614       6.00114627      -4.06132594        0       0.00958196      -0.01313878       0.00101586       0.05039550