496
Lattice="20.39125 0.0 0.0 0.0 20.39125 0.0 0.0 0.0 44.860749999999996" Properties=species:S:1:pos:R:3:spacegroup_kinds:I:1:forces:R:3:energies:R:1 energy=73.23773229993756 free_energy=73.23773229993756 pbc="T T T"
Au      -7.96003149      -6.02155457      -8.03842041        0      -0.01270531      -0.01417961       0.00327276       0.44889790
Au      -7.99810381      -4.03033414      -9.95034500        0       0.00356952       0.00006244      -0.00398967       0.36210119
Au     -10.17900929      -4.09757388      -4.01615613        0       0.00175467       0.01118438       0.00913928       0.28368971
Au      -8.11609030      -6.07039663      -4.01226342        0      -0.00259336       0.00786581      -0.00305876       0.36723091
Au      -8.20541159      -4.11921982      -6.00028456        0       0.00836688       0.00797805      -0.00159565       0.14263093
Au     -10.23853771      -4.13878478       0.00734356        0       0.00796576       0.01371993      -0.00428420       0.20976809
Au      -8.12852587      -6.08534210       0.01326737        0       0.00199829       0.00200228       0.00271038       0.36687346
Au      -8.26351122      -4.16077544      -1.99415075        0       0.00618049      -0.00175499      -0.00670005       0.07687076
Au      -8.00914597      -6.04564058       3.99392811        0      -0.00795842      -0.00105168      -0.00470015       0.44228373
Au      -8.24402434      -4.12977689       1.98723269        0       0.01002334      -0.00030338      -0.00124673       0.13589266
Au      -7.93696388      -5.97391424       7.92440320        0      -0.00997305      -0.01390530      -0.00302865       0.44823869
Au      -8.15174635      -4.03045390       5.93849206        0      -0.00256299      -0.00770172      -0.01444080       0.21137947
Au      -7.97615571      -4.00184249       9.85307334        0      -0.00610338      -0.01128441       0.01168273       0.35968983
Au      -8.00396920      -1.98482984     -11.88988115        0      -0.00111456      -0.00285372      -0.00513298       0.36224332
Au      -7.93991543       0.01117739     -13.84403330        0      -0.00148770      -0.00734942      -0.00514798       0.45744248
Au     -10.13773273      -0.11419273      -7.96829708        0      -0.01237587       0.01530908       0.00833790       0.37221280
Au      -8.18683572      -2.07097256      -7.97846607        0       0.00885931       0.00257017       0.00294737       0.12668533
Au      -8.13112872      -0.01923824      -9.93094585        0      -0.00287389       0.00572778       0.01595936       0.19852897
Au     -10.24390880      -2.07942728      -6.03768710        0       0.01182191      -0.00059243       0.00138158       0.14836434
Au     -10.24455191       0.03659301      -4.04008579        0       0.01114654       0.00254993      -0.00874747       0.06863243
Au      -8.24960013      -2.07559645      -4.01132539        0       0.00968646       0.01911496      -0.01415994       0.00621748
Au      -8.22612049      -0.00402346      -5.99105618        0      -0.00554568       0.00396015      -0.00612744       0.06494070
Au     -10.23719130      -2.08210125      -2.02359650        0       0.00126976       0.00140012      -0.00123306       0.01585993
Au     -10.23719130       0.04297625      -0.01552850        0       0.00126976      -0.00140012       0.00123306       0.01585993
Au      -8.26627552      -2.07841321      -0.00986393        0       0.01229821       0.00457959       0.00179280       0.00331562
Au      -8.26627552       0.03928821      -2.02926107        0       0.01229821      -0.00457959      -0.00179280       0.00331562
Au     -10.24455191      -2.07571801       2.00096079        0       0.01114654      -0.00254993       0.00874747       0.06863243
Au     -10.24390880       0.04030228       3.99856210        0       0.01182191       0.00059243      -0.00138158       0.14836434
Au      -8.22612049      -2.03510154       3.95193118        0      -0.00554568      -0.00396015       0.00612744       0.06494070
Au      -8.24960013       0.03647145       1.97220039        0       0.00968646      -0.01911496       0.01415994       0.00621748
Au     -10.13773273      -1.92493227       5.92917208        0      -0.01237587      -0.01530908      -0.00833790       0.37221280
Au      -8.13112872      -2.01988676       7.89182085        0      -0.00287389      -0.00572778      -0.01595936       0.19852897
Au      -8.18683572       0.03184756       5.93934107        0       0.00885931      -0.00257017      -0.00294737       0.12668533
Au      -7.93991543      -2.05030239      11.80490830        0      -0.00148770       0.00734942       0.00514798       0.45744248
Au      -8.00396920      -0.05429516       9.85075615        0      -0.00111456       0.00285372       0.00513298       0.36224332
Au      -7.97615571       1.96271749     -11.89219834        0      -0.00610338       0.01128441      -0.01168273       0.35968983
Au      -8.15174635       1.99132890      -7.97761706        0      -0.00256299       0.00770172       0.01444080       0.21137947
Au      -7.93696388       3.93478924      -9.96352820        0      -0.00997305       0.01390530       0.00302865       0.44823869
Au      -8.24402434       2.09065189      -4.02635769        0       0.01002334       0.00030338       0.00124673       0.13589266
Au      -8.00914597       4.00651558      -6.03305311        0      -0.00795842       0.00105168       0.00470015       0.44228373
Au     -10.23853771       2.09965978      -2.04646856        0       0.00796576      -0.01371993       0.00428420       0.20976809
Au      -8.26351122       2.12165044      -0.04497425        0       0.00618049       0.00175499       0.00670005       0.07687076
Au      -8.12852587       4.04621710      -2.05239237        0       0.00199829      -0.00200228      -0.00271038       0.36687346
Au     -10.17900929       2.05844888       1.97703113        0       0.00175467      -0.01118438      -0.00913928       0.28368971
Au      -8.20541159       2.08009482       3.96115956        0       0.00836688      -0.00797805       0.00159565       0.14263093
Au      -8.11609030       4.03127163       1.97313842        0      -0.00259336      -0.00786581       0.00305876       0.36723091
Au      -7.99810381       1.99120914       7.91122000        0       0.00356952      -0.00006244       0.00398967       0.36210119
Au      -7.96003149       3.98242957       5.99929541        0      -0.01270531       0.01417961      -0.00327276       0.44889790
Au      -6.02155457      -7.96003149      -8.03842041        0      -0.01417961      -0.01270531       0.00327276       0.44889790
Au      -4.03033414      -7.99810381      -9.95034500        0       0.00006244       0.00356952      -0.00398967       0.36210119
Au      -6.07039663      -8.11609030      -4.01226342        0       0.00786581      -0.00259336      -0.00305876       0.36723091
Au      -4.09757388     -10.17900929      -4.01615613        0       0.01118438       0.00175467       0.00913928       0.28368971
Au      -4.11921982      -8.20541159      -6.00028456        0       0.00797805       0.00836688      -0.00159565       0.14263093
Au      -6.08534210      -8.12852587       0.01326737        0       0.00200228       0.00199829       0.00271038       0.36687346
Au      -4.13878478     -10.23853771       0.00734356        0       0.01371993       0.00796576      -0.00428420       0.20976809
Au      -4.16077544      -8.26351122      -1.99415075        0      -0.00175499       0.00618049      -0.00670005       0.07687076
Au      -6.04564058      -8.00914597       3.99392811        0      -0.00105168      -0.00795842      -0.00470015       0.44228373
Au      -4.12977689      -8.24402434       1.98723269        0      -0.00030338       0.01002334      -0.00124673       0.13589266
Au      -5.97391424      -7.93696388       7.92440320        0      -0.01390530      -0.00997305      -0.00302865       0.44823869
Au      -4.03045390      -8.15174635       5.93849206        0      -0.00770172      -0.00256299      -0.01444080       0.21137947
Au      -4.00184249      -7.97615571       9.85307334        0      -0.01128441      -0.00610338       0.01168273       0.35968983
Au      -6.03700064      -4.10510684     -15.86731375        0       0.01742075       0.00698810       0.01155507       0.45614318
Au      -4.10510684      -6.03700064     -15.86731375        0       0.00698810       0.01742075       0.01155507       0.45614318
Au      -4.11917540      -4.11917540     -17.73196051        0       0.00770795       0.00770795       0.01685154       0.54902807
Au      -5.95420931      -5.95420931     -13.92314980        0      -0.00771337      -0.00771337      -0.00167928       0.54034518
Au      -6.08905686      -4.03406939     -11.97322974        0      -0.01137172      -0.01145879       0.00295194       0.14254538
Au      -4.03406939      -6.08905686     -11.97322974        0      -0.01145879      -0.01137172       0.00295194       0.14254538
Au      -4.02959122      -4.02959122     -13.97605801        0       0.01127330       0.01127330       0.03802536       0.04968613
Au      -6.05706081      -6.05706081     -10.00767976        0       0.00730434       0.00730434      -0.00284257       0.21199865
Au      -6.08600012      -4.05906246      -7.92426672        0       0.00858912       0.00308146      -0.00141550       0.02760031
Au      -4.05906246      -6.08600012      -7.92426672        0       0.00308146       0.00858912      -0.00141550       0.02760031
Au      -4.05692923      -4.05692923      -9.94781432        0      -0.00694527      -0.00694527      -0.01577467      -0.00451256
Au      -6.14455757      -6.14455757      -5.95229380        0      -0.00494150      -0.00494150      -0.01284588       0.09429775
Au      -6.18450696      -4.10992799      -3.95659752        0      -0.00636521      -0.00130067      -0.01254402       0.00815439
Au      -4.10992799      -6.18450696      -3.95659752        0      -0.00130067      -0.00636521      -0.01254402       0.00815439
Au      -4.08601650      -4.08601650      -5.88730753        0      -0.00542297      -0.00542297      -0.00680032       0.00069297
Au      -6.20634242      -6.20634242      -1.99192362        0       0.00962827       0.00962827      -0.00553790       0.08671357
Au      -6.20084512      -4.11627293      -0.02213972        0       0.00692051       0.00073391       0.00219167       0.00899941
Au      -4.11627293      -6.20084512      -0.02213972        0       0.00073391       0.00692051       0.00219167       0.00899941
Au      -4.14160658      -4.14160658      -1.98013774        0       0.00645355       0.00645355      -0.00879714       0.00414383
Au      -6.16141293      -6.16141293       1.95718828        0      -0.00149107      -0.00149107       0.01290910       0.09772394
Au      -6.13604551      -4.05525198       3.89879288        0      -0.00486657       0.00686823       0.02249861       0.01846653
Au      -4.05525198      -6.13604551       3.89879288        0       0.00686823      -0.00486657       0.02249861       0.01846653
Au      -4.10250493      -4.10250493       1.90625895        0      -0.00668470      -0.00668470      -0.00131585       0.00221718
Au      -6.06962703      -6.06962703       5.91082928        0      -0.01054675      -0.01054675      -0.00222459       0.11304747
Au      -6.04732181      -4.00720762       7.86197172        0      -0.01259712       0.00037330      -0.00180339       0.02938504
Au      -4.00720762      -6.04732181       7.86197172        0       0.00037330      -0.01259712      -0.00180339       0.02938504
Au      -4.03052709      -4.03052709       5.83341008        0      -0.01846402      -0.01846402       0.01310109       0.00029056
Au      -6.03849906      -6.03849906       9.89302879        0       0.00121312       0.00121312       0.02405654       0.21971822
Au      -6.06612647      -4.05732357      11.90326686        0       0.00246291       0.00812712      -0.02004534       0.21807593
Au      -4.05732357      -6.06612647      11.90326686        0       0.00812712       0.00246291      -0.02004534       0.21807593
Au      -4.04147062      -4.04147062       9.91601508        0      -0.00058935      -0.00058935      -0.00032542      -0.00154536
Au      -4.06480258      -4.06480258      13.90474772        0      -0.02255784      -0.02255784       0.00767572       0.21580221
Au      -6.04572568       0.03502814     -15.87431491        0      -0.00505456      -0.01046736       0.01382597       0.36956789
Au      -4.15352365      -2.02397896     -15.99728449        0       0.03413687      -0.00229375       0.02457921       0.10044576
Au      -4.06832270       0.04316472     -17.86910947        0       0.01518511      -0.01668705       0.01857912       0.37780888
Au      -6.12827615      -2.04300054     -13.97316165        0      -0.00694234      -0.00174319       0.00550674       0.14507829
Au      -6.03517923      -0.02741504     -11.92250162        0      -0.00742157       0.01727878      -0.00124718       0.04413563
Au      -4.04898212      -2.03495411     -11.96507734        0      -0.00453985      -0.00037324       0.01121704      -0.00054382
Au      -4.05889861      -0.01310913     -13.99005782        0       0.00917250      -0.00653057       0.01199651       0.00789253
Au      -6.07373159      -2.03194578      -9.91058399        0      -0.01255940       0.00987141      -0.01700047       0.02291884
Au      -6.13903512      -0.02974797      -7.90646185        0       0.01022780      -0.00485682      -0.01499302       0.00307066
Au      -4.05339062      -2.03744682      -7.88191667        0      -0.01599472      -0.00953123      -0.00494775      -0.00007191
Au      -4.01822703      -0.02837901      -9.89954879        0      -0.02221842       0.00723481       0.00023289       0.00175747
Au      -6.17451416      -2.05323193      -5.93050624        0       0.00906474      -0.00366841      -0.01574741       0.00125664
Au      -6.20997531       0.00085258      -3.96064678        0       0.02022402       0.00093845      -0.01543333       0.00302646
Au      -4.13747388      -2.05403387      -3.90927254        0       0.00616483      -0.00968098      -0.01574763       0.00401802
Au      -4.08990588      -0.02163877      -5.88158696        0      -0.01584206       0.01335554      -0.00748266       0.00216804
Au      -6.23657094      -2.05660970      -1.99075515        0       0.01821677      -0.00120653      -0.00657975       0.00264039
Au      -6.23657094       0.01748470      -0.04836985        0       0.01821677       0.00120653       0.00657975       0.00264039
Au      -4.15129207      -2.05577839      -0.05645265        0      -0.00342683      -0.00161599       0.00415816       0.00574171
Au      -4.15129207       0.01665339      -1.98267235        0      -0.00342683       0.00161599      -0.00415816       0.00574171
Au      -6.20997531      -2.03997758       1.92152178        0       0.02022402      -0.00093845       0.01543333       0.00302646
Au      -6.17451416       0.01410693       3.89138124        0       0.00906474       0.00366841       0.01574741       0.00125664
Au      -4.08990588      -2.01748623       3.84246196        0      -0.01584206      -0.01335554       0.00748266       0.00216804
Au      -4.13747388       0.01490887       1.87014754        0       0.00616483       0.00968098       0.01574763       0.00401802
Au      -6.13903512      -2.00937703       5.86733685        0       0.01022780       0.00485682       0.01499302       0.00307066
Au      -6.07373159      -0.00717922       7.87145899        0      -0.01255940      -0.00987141       0.01700047       0.02291884
Au      -4.01822703      -2.01074599       7.86042379        0      -0.02221842      -0.00723481      -0.00023289       0.00175747
Au      -4.05339062      -0.00167818       5.84279167        0      -0.01599472       0.00953123       0.00494775      -0.00007191
Au      -6.03517923      -2.01170996       9.88337662        0      -0.00742157      -0.01727878       0.00124718       0.04413563
Au      -6.12827615       0.00387554      11.93403665        0      -0.00694234       0.00174319      -0.00550674       0.14507829
Au      -4.05889861      -2.02601587      11.95093282        0       0.00917250       0.00653057      -0.01199651       0.00789253
Au      -4.04898212      -0.00417089       9.92595234        0      -0.00453985       0.00037324      -0.01121704      -0.00054382
Au      -6.04572568      -2.07415314      13.83518991        0      -0.00505456       0.01046736      -0.01382597       0.36956789
Au      -4.06832270      -2.08228972      15.82998447        0       0.01518511       0.01668705      -0.01857912       0.37780888
Au      -4.15352365      -0.01514604      13.95815949        0       0.03413687       0.00229375      -0.02457921       0.10044576
Au      -4.06480258       2.02567758     -15.94387272        0      -0.02255784       0.02255784      -0.00767572       0.21580221
Au      -6.06612647       2.01819857     -13.94239186        0       0.00246291      -0.00812712       0.02004534       0.21807593
Au      -6.03849906       3.99937406     -11.93215379        0       0.00121312      -0.00121312      -0.02405654       0.21971822
Au      -4.04147062       2.00234562     -11.95514008        0      -0.00058935       0.00058935       0.00032542      -0.00154536
Au      -4.05732357       4.02700147     -13.94239186        0       0.00812712      -0.00246291       0.02004534       0.21807593
Au      -6.04732181       1.96808262      -9.90109672        0      -0.01259712      -0.00037330       0.00180339       0.02938504
Au      -6.06962703       4.03050203      -7.94995428        0      -0.01054675       0.01054675       0.00222459       0.11304747
Au      -4.03052709       1.99140209      -7.87253508        0      -0.01846402       0.01846402      -0.01310109       0.00029056
Au      -4.00720762       4.00819681      -9.90109672        0       0.00037330       0.01259712       0.00180339       0.02938504
Au      -6.13604551       2.01612698      -5.93791788        0      -0.00486657      -0.00686823      -0.02249861       0.01846653
Au      -6.16141293       4.12228793      -3.99631328        0      -0.00149107       0.00149107      -0.01290910       0.09772394
Au      -4.10250493       2.06337993      -3.94538395        0      -0.00668470       0.00668470       0.00131585       0.00221718
Au      -4.05525198       4.09692051      -5.93791788        0       0.00686823       0.00486657      -0.02249861       0.01846653
Au      -6.20084512       2.07714793      -2.01698528        0       0.00692051      -0.00073391      -0.00219167       0.00899941
Au      -6.20634242       4.16721742      -0.04720138        0       0.00962827      -0.00962827       0.00553790       0.08671357
Au      -4.14160658       2.10248158      -0.05898726        0       0.00645355      -0.00645355       0.00879714       0.00414383
Au      -4.11627293       4.16172012      -2.01698528        0       0.00073391      -0.00692051      -0.00219167       0.00899941
Au      -6.18450696       2.07080299       1.91747252        0      -0.00636521       0.00130067       0.01254402       0.00815439
Au      -6.14455757       4.10543257       3.91316880        0      -0.00494150       0.00494150       0.01284588       0.09429775
Au      -4.08601650       2.04689150       3.84818253        0      -0.00542297       0.00542297       0.00680032       0.00069297
Au      -4.10992799       4.14538196       1.91747252        0      -0.00130067       0.00636521       0.01254402       0.00815439
Au      -6.08600012       2.01993746       5.88514172        0       0.00858912      -0.00308146       0.00141550       0.02760031
Au      -6.05706081       4.01793581       7.96855476        0       0.00730434      -0.00730434       0.00284257       0.21199865
Au      -4.05692923       2.01780423       7.90868932        0      -0.00694527       0.00694527       0.01577467      -0.00451256
Au      -4.05906246       4.04687512       5.88514172        0       0.00308146      -0.00858912       0.00141550       0.02760031
Au      -6.08905686       1.99494439       9.93410474        0      -0.01137172       0.01145879      -0.00295194       0.14254538
Au      -5.95420931       3.91508431      11.88402480        0      -0.00771337       0.00771337       0.00167928       0.54034518
Au      -4.02959122       1.99046622      11.93693301        0       0.01127330      -0.01127330      -0.03802536       0.04968613
Au      -4.03406939       4.04993186       9.93410474        0      -0.01145879       0.01137172      -0.00295194       0.14254538
Au      -6.03700064       2.06598184      13.82818875        0       0.01742075      -0.00698810      -0.01155507       0.45614318
Au      -4.11917540       2.08005040      15.69283551        0       0.00770795      -0.00770795      -0.01685154       0.54902807
Au      -4.10510684       3.99787564      13.82818875        0       0.00698810      -0.01742075      -0.01155507       0.45614318
Au      -4.00184249       5.93703071     -11.89219834        0      -0.01128441       0.00610338      -0.01168273       0.35968983
Au      -5.97391424       5.89783888      -9.96352820        0      -0.01390530       0.00997305       0.00302865       0.44823869
Au      -4.03045390       6.11262135      -7.97761706        0      -0.00770172       0.00256299       0.01444080       0.21137947
Au      -6.04564058       5.97002097      -6.03305311        0      -0.00105168       0.00795842       0.00470015       0.44228373
Au      -4.12977689       6.20489934      -4.02635769        0      -0.00030338      -0.01002334       0.00124673       0.13589266
Au      -6.08534210       6.08940087      -2.05239237        0       0.00200228      -0.00199829      -0.00271038       0.36687346
Au      -4.16077544       6.22438622      -0.04497425        0      -0.00175499      -0.00618049       0.00670005       0.07687076
Au      -4.13878478       8.19941271      -2.04646856        0       0.01371993      -0.00796576       0.00428420       0.20976809
Au      -6.07039663       6.07696530       1.97313842        0       0.00786581       0.00259336       0.00305876       0.36723091
Au      -4.11921982       6.16628659       3.96115956        0       0.00797805      -0.00836688       0.00159565       0.14263093
Au      -4.09757388       8.13988429       1.97703113        0       0.01118438      -0.00175467      -0.00913928       0.28368971
Au      -6.02155457       5.92090649       5.99929541        0      -0.01417961       0.01270531      -0.00327276       0.44889790
Au      -4.03033414       5.95897881       7.91122000        0       0.00006244      -0.00356952       0.00398967       0.36210119
Au      -1.98482984      -8.00396920     -11.88988115        0      -0.00285372      -0.00111456      -0.00513298       0.36224332
Au       0.01117739      -7.93991543     -13.84403330        0      -0.00734942      -0.00148770      -0.00514798       0.45744248
Au      -2.07097256      -8.18683572      -7.97846607        0       0.00257017       0.00885931       0.00294737       0.12668533
Au      -0.11419273     -10.13773273      -7.96829708        0       0.01530908      -0.01237587       0.00833790       0.37221280
Au      -0.01923824      -8.13112872      -9.93094585        0       0.00572778      -0.00287389       0.01595936       0.19852897
Au      -2.07942728     -10.24390880      -6.03768710        0      -0.00059243       0.01182191       0.00138158       0.14836434
Au      -2.07559645      -8.24960013      -4.01132539        0       0.01911496       0.00968646      -0.01415994       0.00621748
Au       0.03659301     -10.24455191      -4.04008579        0       0.00254993       0.01114654      -0.00874747       0.06863243
Au      -0.00402346      -8.22612049      -5.99105618        0       0.00396015      -0.00554568      -0.00612744       0.06494070
Au      -2.08210125     -10.23719130      -2.02359650        0       0.00140012       0.00126976      -0.00123306       0.01585993
Au      -2.07841321      -8.26627552      -0.00986393        0       0.00457959       0.01229821       0.00179280       0.00331562
Au       0.04297625     -10.23719130      -0.01552850        0      -0.00140012       0.00126976       0.00123306       0.01585993
Au       0.03928821      -8.26627552      -2.02926107        0      -0.00457959       0.01229821      -0.00179280       0.00331562
Au      -2.07571801     -10.24455191       2.00096079        0      -0.00254993       0.01114654       0.00874747       0.06863243
Au      -2.03510154      -8.22612049       3.95193118        0      -0.00396015      -0.00554568       0.00612744       0.06494070
Au       0.04030228     -10.24390880       3.99856210        0       0.00059243       0.01182191      -0.00138158       0.14836434
Au       0.03647145      -8.24960013       1.97220039        0      -0.01911496       0.00968646       0.01415994       0.00621748
Au      -1.92493227     -10.13773273       5.92917208        0      -0.01530908      -0.01237587      -0.00833790       0.37221280
Au      -2.01988676      -8.13112872       7.89182085        0      -0.00572778      -0.00287389      -0.01595936       0.19852897
Au       0.03184756      -8.18683572       5.93934107        0      -0.00257017       0.00885931      -0.00294737       0.12668533
Au      -2.05030239      -7.93991543      11.80490830        0       0.00734942      -0.00148770       0.00514798       0.45744248
Au      -0.05429516      -8.00396920       9.85075615        0       0.00285372      -0.00111456       0.00513298       0.36224332
Au      -2.02397896      -4.15352365     -15.99728449        0      -0.00229375       0.03413687       0.02457921       0.10044576
Au       0.03502814      -6.04572568     -15.87431491        0      -0.01046736      -0.00505456       0.01382597       0.36956789
Au       0.04316472      -4.06832270     -17.86910947        0      -0.01668705       0.01518511       0.01857912       0.37780888
Au      -2.04300054      -6.12827615     -13.97316165        0      -0.00174319      -0.00694234       0.00550674       0.14507829
Au      -2.03495411      -4.04898212     -11.96507734        0      -0.00037324      -0.00453985       0.01121704      -0.00054382
Au      -0.02741504      -6.03517923     -11.92250162        0       0.01727878      -0.00742157      -0.00124718       0.04413563
Au      -0.01310913      -4.05889861     -13.99005782        0      -0.00653057       0.00917250       0.01199651       0.00789253
Au      -2.03194578      -6.07373159      -9.91058399        0       0.00987141      -0.01255940      -0.01700047       0.02291884
Au      -2.03744682      -4.05339062      -7.88191667        0      -0.00953123      -0.01599472      -0.00494775      -0.00007191
Au      -0.02974797      -6.13903512      -7.90646185        0      -0.00485682       0.01022780      -0.01499302       0.00307066
Au      -0.02837901      -4.01822703      -9.89954879        0       0.00723481      -0.02221842       0.00023289       0.00175747
Au      -2.05323193      -6.17451416      -5.93050624        0      -0.00366841       0.00906474      -0.01574741       0.00125664
Au      -2.05403387      -4.13747388      -3.90927254        0      -0.00968098       0.00616483      -0.01574763       0.00401802
Au       0.00085258      -6.20997531      -3.96064678        0       0.00093845       0.02022402      -0.01543333       0.00302646
Au      -0.02163877      -4.08990588      -5.88158696        0       0.01335554      -0.01584206      -0.00748266       0.00216804
Au      -2.05660970      -6.23657094      -1.99075515        0      -0.00120653       0.01821677      -0.00657975       0.00264039
Au      -2.05577839      -4.15129207      -0.05645265        0      -0.00161599      -0.00342683       0.00415816       0.00574171
Au       0.01748470      -6.23657094      -0.04836985        0       0.00120653       0.01821677       0.00657975       0.00264039
Au       0.01665339      -4.15129207      -1.98267235        0       0.00161599      -0.00342683      -0.00415816       0.00574171
Au      -2.03997758      -6.20997531       1.92152178        0      -0.00093845       0.02022402       0.01543333       0.00302646
Au      -2.01748623      -4.08990588       3.84246196        0      -0.01335554      -0.01584206       0.00748266       0.00216804
Au       0.01410693      -6.17451416       3.89138124        0       0.00366841       0.00906474       0.01574741       0.00125664
Au       0.01490887      -4.13747388       1.87014754        0       0.00968098       0.00616483       0.01574763       0.00401802
Au      -2.00937703      -6.13903512       5.86733685        0       0.00485682       0.01022780       0.01499302       0.00307066
Au      -2.01074599      -4.01822703       7.86042379        0      -0.00723481      -0.02221842      -0.00023289       0.00175747
Au      -0.00717922      -6.07373159       7.87145899        0      -0.00987141      -0.01255940       0.01700047       0.02291884
Au      -0.00167818      -4.05339062       5.84279167        0       0.00953123      -0.01599472       0.00494775      -0.00007191
Au      -2.01170996      -6.03517923       9.88337662        0      -0.01727878      -0.00742157       0.00124718       0.04413563
Au      -2.02601587      -4.05889861      11.95093282        0       0.00653057       0.00917250      -0.01199651       0.00789253
Au       0.00387554      -6.12827615      11.93403665        0       0.00174319      -0.00694234      -0.00550674       0.14507829
Au      -0.00417089      -4.04898212       9.92595234        0       0.00037324      -0.00453985      -0.01121704      -0.00054382
Au      -2.07415314      -6.04572568      13.83518991        0       0.01046736      -0.00505456      -0.01382597       0.36956789
Au      -2.08228972      -4.06832270      15.82998447        0       0.01668705       0.01518511      -0.01857912       0.37780888