146
Properties=species:S:1:pos:R:3:forces:R:3:energies:R:1 energy=32.9050412481442 free_energy=32.9050412481442 pbc="F F F"
Au      -9.58358437       0.00000000      -0.00000000      -0.03665479      -0.00000000       0.00000000       0.65728797
Au       9.58358437      -0.00000000      -0.00000000       0.03665479       0.00000000       0.00000000       0.65728797
Au      -0.00000000      -9.58358437       0.00000000       0.00000000      -0.03665479      -0.00000000       0.65728797
Au      -0.00000000       9.58358437      -0.00000000       0.00000000       0.03665479      -0.00000000       0.65728797
Au      -0.00000000       0.00000000      -9.58358437      -0.00000000       0.00000000      -0.03665479       0.65728797
Au      -0.00000000       0.00000000       9.58358437       0.00000000       0.00000000       0.03665479       0.65728797
Au      -2.01834818      -7.86640144      -0.00000000       0.00657419      -0.01330673       0.00000000       0.37945055
Au       2.01834818      -7.86640144       0.00000000      -0.00657419      -0.01330673      -0.00000000       0.37945055
Au      -2.01834818       7.86640144      -0.00000000       0.00657419       0.01330673      -0.00000000       0.37945055
Au       2.01834818       7.86640144       0.00000000      -0.00657419       0.01330673       0.00000000       0.37945055
Au      -2.01834818      -0.00000000      -7.86640144       0.00657419       0.00000000      -0.01330673       0.37945055
Au       2.01834818      -0.00000000      -7.86640144      -0.00657419       0.00000000      -0.01330673       0.37945055
Au       0.00000000      -2.01834818      -7.86640144      -0.00000000       0.00657419      -0.01330673       0.37945055
Au       0.00000000       2.01834818      -7.86640144      -0.00000000      -0.00657419      -0.01330673       0.37945055
Au      -2.01834818      -0.00000000       7.86640144       0.00657419      -0.00000000       0.01330673       0.37945055
Au       2.01834818      -0.00000000       7.86640144      -0.00657419      -0.00000000       0.01330673       0.37945055
Au       0.00000000      -2.01834818       7.86640144      -0.00000000       0.00657419       0.01330673       0.37945055
Au      -0.00000000       2.01834818       7.86640144      -0.00000000      -0.00657419       0.01330673       0.37945055
Au      -3.99434695      -5.94323171       0.00000000       0.01302443      -0.00333235      -0.00000000       0.37270707
Au       3.99434695      -5.94323171      -0.00000000      -0.01302443      -0.00333235      -0.00000000       0.37270707
Au      -3.99434695       5.94323171       0.00000000       0.01302443       0.00333235      -0.00000000       0.37270707
Au       3.99434695       5.94323171      -0.00000000      -0.01302443       0.00333235       0.00000000       0.37270707
Au      -3.99434695       0.00000000      -5.94323171       0.01302443      -0.00000000      -0.00333235       0.37270707
Au       3.99434695      -0.00000000      -5.94323171      -0.01302443       0.00000000      -0.00333235       0.37270707
Au      -0.00000000      -3.99434695      -5.94323171      -0.00000000       0.01302443      -0.00333235       0.37270707
Au       0.00000000       3.99434695      -5.94323171      -0.00000000      -0.01302443      -0.00333235       0.37270707
Au      -3.99434695       0.00000000       5.94323171       0.01302443      -0.00000000       0.00333235       0.37270707
Au       3.99434695      -0.00000000       5.94323171      -0.01302443       0.00000000       0.00333235       0.37270707
Au      -0.00000000      -3.99434695       5.94323171       0.00000000       0.01302443       0.00333235       0.37270707
Au       0.00000000       3.99434695       5.94323171      -0.00000000      -0.01302443       0.00333235       0.37270707
Au      -5.94323171      -3.99434695      -0.00000000      -0.00333235       0.01302443       0.00000000       0.37270707
Au       5.94323171      -3.99434695       0.00000000       0.00333235       0.01302443      -0.00000000       0.37270707
Au      -5.94323171       3.99434695       0.00000000      -0.00333235      -0.01302443      -0.00000000       0.37270707
Au       5.94323171       3.99434695       0.00000000       0.00333235      -0.01302443       0.00000000       0.37270707
Au      -5.94323171      -0.00000000      -3.99434695      -0.00333235      -0.00000000       0.01302443       0.37270707
Au       5.94323171      -0.00000000      -3.99434695       0.00333235       0.00000000       0.01302443       0.37270707
Au       0.00000000      -5.94323171      -3.99434695      -0.00000000      -0.00333235       0.01302443       0.37270707
Au      -0.00000000       5.94323171      -3.99434695       0.00000000       0.00333235       0.01302443       0.37270707
Au      -5.94323171       0.00000000       3.99434695      -0.00333235       0.00000000      -0.01302443       0.37270707
Au       5.94323171       0.00000000       3.99434695       0.00333235      -0.00000000      -0.01302443       0.37270707
Au       0.00000000      -5.94323171       3.99434695      -0.00000000      -0.00333235      -0.01302443       0.37270707
Au      -0.00000000       5.94323171       3.99434695       0.00000000       0.00333235      -0.01302443       0.37270707
Au      -7.86640144      -2.01834818      -0.00000000      -0.01330673       0.00657419       0.00000000       0.37945055
Au       7.86640144      -2.01834818       0.00000000       0.01330673       0.00657419       0.00000000       0.37945055
Au      -7.86640144       2.01834818      -0.00000000      -0.01330673      -0.00657419      -0.00000000       0.37945055
Au       7.86640144       2.01834818      -0.00000000       0.01330673      -0.00657419       0.00000000       0.37945055
Au      -7.86640144       0.00000000      -2.01834818      -0.01330673       0.00000000       0.00657419       0.37945055
Au       7.86640144      -0.00000000      -2.01834818       0.01330673       0.00000000       0.00657419       0.37945055
Au      -0.00000000      -7.86640144      -2.01834818      -0.00000000      -0.01330673       0.00657419       0.37945055
Au      -0.00000000       7.86640144      -2.01834818       0.00000000       0.01330673       0.00657419       0.37945055
Au      -7.86640144       0.00000000       2.01834818      -0.01330673       0.00000000      -0.00657419       0.37945055
Au       7.86640144      -0.00000000       2.01834818       0.01330673      -0.00000000      -0.00657419       0.37945055
Au      -0.00000000      -7.86640144       2.01834818      -0.00000000      -0.01330673      -0.00657419       0.37945055
Au      -0.00000000       7.86640144       2.01834818      -0.00000000       0.01330673      -0.00657419       0.37945055
Au      -6.00575795      -2.05063138      -2.05063138      -0.00468269       0.01085652       0.01085652       0.21712417
Au      -4.04543888      -4.04543888      -2.03992826       0.00992100       0.00992100       0.00869147       0.21547329
Au      -4.04543888      -2.03992826      -4.04543888       0.00992100       0.00869147       0.00992100       0.21547329
Au      -2.05063138      -6.00575795      -2.05063138       0.01085652      -0.00468269       0.01085652       0.21712417
Au      -2.03992826      -4.04543888      -4.04543888       0.00869147       0.00992100       0.00992100       0.21547329
Au      -2.05063138      -2.05063138      -6.00575795       0.01085652       0.01085652      -0.00468269       0.21712417
Au      -6.00575795      -2.05063138       2.05063138      -0.00468269       0.01085652      -0.01085652       0.21712417
Au      -4.04543888      -4.04543888       2.03992826       0.00992100       0.00992100      -0.00869147       0.21547329
Au      -4.04543888      -2.03992826       4.04543888       0.00992100       0.00869147      -0.00992100       0.21547329
Au      -2.05063138      -6.00575795       2.05063138       0.01085652      -0.00468269      -0.01085652       0.21712417
Au      -2.03992826      -4.04543888       4.04543888       0.00869147       0.00992100      -0.00992100       0.21547329
Au      -2.05063138      -2.05063138       6.00575795       0.01085652       0.01085652       0.00468269       0.21712417
Au       6.00575795      -2.05063138      -2.05063138       0.00468269       0.01085652       0.01085652       0.21712417
Au       4.04543888      -4.04543888      -2.03992826      -0.00992100       0.00992100       0.00869147       0.21547329
Au       4.04543888      -2.03992826      -4.04543888      -0.00992100       0.00869147       0.00992100       0.21547329
Au       2.05063138      -6.00575795      -2.05063138      -0.01085652      -0.00468269       0.01085652       0.21712417
Au       2.03992826      -4.04543888      -4.04543888      -0.00869147       0.00992100       0.00992100       0.21547329
Au       2.05063138      -2.05063138      -6.00575795      -0.01085652       0.01085652      -0.00468269       0.21712417
Au       6.00575795      -2.05063138       2.05063138       0.00468269       0.01085652      -0.01085652       0.21712417
Au       4.04543888      -4.04543888       2.03992826      -0.00992100       0.00992100      -0.00869147       0.21547329
Au       4.04543888      -2.03992826       4.04543888      -0.00992100       0.00869147      -0.00992100       0.21547329
Au       2.05063138      -6.00575795       2.05063138      -0.01085652      -0.00468269      -0.01085652       0.21712417
Au       2.03992826      -4.04543888       4.04543888      -0.00869147       0.00992100      -0.00992100       0.21547329
Au       2.05063138      -2.05063138       6.00575795      -0.01085652       0.01085652       0.00468269       0.21712417
Au      -6.00575795       2.05063138      -2.05063138      -0.00468269      -0.01085652       0.01085652       0.21712417
Au      -4.04543888       4.04543888      -2.03992826       0.00992100      -0.00992100       0.00869147       0.21547329
Au      -4.04543888       2.03992826      -4.04543888       0.00992100      -0.00869147       0.00992100       0.21547329
Au      -2.05063138       6.00575795      -2.05063138       0.01085652       0.00468269       0.01085652       0.21712417
Au      -2.03992826       4.04543888      -4.04543888       0.00869147      -0.00992100       0.00992100       0.21547329
Au      -2.05063138       2.05063138      -6.00575795       0.01085652      -0.01085652      -0.00468269       0.21712417
Au      -6.00575795       2.05063138       2.05063138      -0.00468269      -0.01085652      -0.01085652       0.21712417
Au      -4.04543888       4.04543888       2.03992826       0.00992100      -0.00992100      -0.00869147       0.21547329
Au      -4.04543888       2.03992826       4.04543888       0.00992100      -0.00869147      -0.00992100       0.21547329
Au      -2.05063138       6.00575795       2.05063138       0.01085652       0.00468269      -0.01085652       0.21712417
Au      -2.03992826       4.04543888       4.04543888       0.00869147      -0.00992100      -0.00992100       0.21547329
Au      -2.05063138       2.05063138       6.00575795       0.01085652      -0.01085652       0.00468269       0.21712417
Au       6.00575795       2.05063138      -2.05063138       0.00468269      -0.01085652       0.01085652       0.21712417
Au       4.04543888       4.04543888      -2.03992826      -0.00992100      -0.00992100       0.00869147       0.21547329
Au       4.04543888       2.03992826      -4.04543888      -0.00992100      -0.00869147       0.00992100       0.21547329
Au       2.05063138       6.00575795      -2.05063138      -0.01085652       0.00468269       0.01085652       0.21712417
Au       2.03992826       4.04543888      -4.04543888      -0.00869147      -0.00992100       0.00992100       0.21547329
Au       2.05063138       2.05063138      -6.00575795      -0.01085652      -0.01085652      -0.00468269       0.21712417
Au       6.00575795       2.05063138       2.05063138       0.00468269      -0.01085652      -0.01085652       0.21712417
Au       4.04543888       4.04543888       2.03992826      -0.00992100      -0.00992100      -0.00869147       0.21547329
Au       4.04543888       2.03992826       4.04543888      -0.00992100      -0.00869147      -0.00992100       0.21547329
Au       2.05063138       6.00575795       2.05063138      -0.01085652       0.00468269      -0.01085652       0.21712417
Au       2.03992826       4.04543888       4.04543888      -0.00869147      -0.00992100      -0.00992100       0.21547329
Au       2.05063138       2.05063138       6.00575795      -0.01085652      -0.01085652       0.00468269       0.21712417
Au       0.00000000      -5.99264874       0.00000000      -0.00000000      -0.01148610      -0.00000000       0.03593000
Au       2.04127261      -4.03450234       0.00000000      -0.01338455       0.00105291      -0.00000000       0.01351224
Au       4.03450234      -2.04127261      -0.00000000      -0.00105291       0.01338455       0.00000000       0.01351224
Au       5.99264874       0.00000000       0.00000000       0.01148610      -0.00000000       0.00000000       0.03593000
Au      -2.04127261      -4.03450234       0.00000000       0.01338455       0.00105291       0.00000000       0.01351224
Au       0.00000000      -2.01550575       0.00000000       0.00000000      -0.00473388       0.00000000      -0.00338811
Au       2.01550575       0.00000000       0.00000000       0.00473388       0.00000000      -0.00000000      -0.00338811
Au       4.03450234       2.04127261       0.00000000      -0.00105291      -0.01338455      -0.00000000       0.01351224
Au      -4.03450234      -2.04127261       0.00000000       0.00105291       0.01338455      -0.00000000       0.01351224
Au      -2.01550575       0.00000000       0.00000000      -0.00473388      -0.00000000       0.00000000      -0.00338811
Au       0.00000000       2.01550575      -0.00000000       0.00000000       0.00473388       0.00000000      -0.00338811
Au       2.04127261       4.03450234       0.00000000      -0.01338455      -0.00105291      -0.00000000       0.01351224
Au      -5.99264874      -0.00000000       0.00000000      -0.01148610       0.00000000       0.00000000       0.03593000
Au      -4.03450234       2.04127261       0.00000000       0.00105291      -0.01338455      -0.00000000       0.01351224
Au      -2.04127261       4.03450234       0.00000000       0.01338455      -0.00105291      -0.00000000       0.01351224
Au      -0.00000000       5.99264874       0.00000000       0.00000000       0.01148610      -0.00000000       0.03593000
Au      -0.00000000      -0.00000000      -5.99264874       0.00000000      -0.00000000      -0.01148610       0.03593000
Au       0.00000000      -0.00000000       5.99264874      -0.00000000       0.00000000       0.01148610       0.03593000
Au      -0.00000000      -2.04127261      -4.03450234      -0.00000000       0.01338455       0.00105291       0.01351224
Au       2.04127261       0.00000000      -4.03450234      -0.01338455      -0.00000000       0.00105291       0.01351224
Au      -2.04127261      -0.00000000      -4.03450234       0.01338455      -0.00000000       0.00105291       0.01351224
Au       0.00000000       2.04127261      -4.03450234       0.00000000      -0.01338455       0.00105291       0.01351224
Au       0.00000000      -2.04127261       4.03450234       0.00000000       0.01338455      -0.00105291       0.01351224
Au       2.04127261       0.00000000       4.03450234      -0.01338455       0.00000000      -0.00105291       0.01351224
Au      -2.04127261       0.00000000       4.03450234       0.01338455      -0.00000000      -0.00105291       0.01351224
Au       0.00000000       2.04127261       4.03450234      -0.00000000      -0.01338455      -0.00105291       0.01351224
Au       0.00000000      -4.03450234      -2.04127261      -0.00000000       0.00105291       0.01338455       0.01351224
Au       2.03999491      -2.03999491      -2.03999491      -0.00187827       0.00187827       0.00187827       0.00095580
Au       4.03450234       0.00000000      -2.04127261      -0.00105291      -0.00000000       0.01338455       0.01351224
Au      -2.03999491      -2.03999491      -2.03999491       0.00187827       0.00187827       0.00187827       0.00095580
Au       0.00000000       0.00000000      -2.01550575      -0.00000000       0.00000000      -0.00473388      -0.00338811
Au       2.03999491       2.03999491      -2.03999491      -0.00187827      -0.00187827       0.00187827       0.00095580
Au      -4.03450234      -0.00000000      -2.04127261       0.00105291      -0.00000000       0.01338455       0.01351224
Au      -2.03999491       2.03999491      -2.03999491       0.00187827      -0.00187827       0.00187827       0.00095580
Au      -0.00000000       4.03450234      -2.04127261      -0.00000000      -0.00105291       0.01338455       0.01351224
Au       0.00000000      -4.03450234       2.04127261       0.00000000       0.00105291      -0.01338455       0.01351224
Au       2.03999491      -2.03999491       2.03999491      -0.00187827       0.00187827      -0.00187827       0.00095580
Au       4.03450234       0.00000000       2.04127261      -0.00105291      -0.00000000      -0.01338455       0.01351224
Au      -2.03999491      -2.03999491       2.03999491       0.00187827       0.00187827      -0.00187827       0.00095580
Au       0.00000000       0.00000000       2.01550575      -0.00000000      -0.00000000       0.00473388      -0.00338811
Au       2.03999491       2.03999491       2.03999491      -0.00187827      -0.00187827      -0.00187827       0.00095580
Au      -4.03450234       0.00000000       2.04127261       0.00105291      -0.00000000      -0.01338455       0.01351224
Au      -2.03999491       2.03999491       2.03999491       0.00187827      -0.00187827      -0.00187827       0.00095580
Au      -0.00000000       4.03450234       2.04127261       0.00000000      -0.00105291      -0.01338455       0.01351224
