146
Lattice="29.091883092036785 0.0 0.0 0.0 29.091883092036785 0.0 0.0 0.0 29.091883092036785" Properties=species:S:1:pos:R:3:energies:R:1:forces:R:3 energy=32.91103040671895 free_energy=32.91103040671895 stress="2.6552348747096342e-05 4.8398124635023205e-18 -2.2077166362915766e-18 4.8398124635023205e-18 2.6552348747098077e-05 -8.364474139490368e-19 -2.2077166362915766e-18 -8.364474139490368e-19 2.6552348747094035e-05" pbc="F F F"
Au       4.96208176      14.54594155      14.54594155       0.65864756       0.03430897      -0.00000000       0.00000000
Au      24.12980134      14.54594155      14.54594155       0.65864756      -0.03430897      -0.00000000      -0.00000000
Au      14.54594155       4.96208176      14.54594155       0.65864756       0.00000000       0.03430897       0.00000000
Au      14.54594155      24.12980134      14.54594155       0.65864756       0.00000000      -0.03430897       0.00000000
Au      14.54594155      14.54594155       4.96208176       0.65864756      -0.00000000      -0.00000000       0.03430897
Au      14.54594155      14.54594155      24.12980134       0.65864756       0.00000000       0.00000000      -0.03430897
Au      12.52472426       6.68295650      14.54594155       0.37942961       0.04600723      -0.02531583       0.00000000
Au      16.56715883       6.68295650      14.54594155       0.37942961      -0.04600723      -0.02531583       0.00000000
Au      12.52472426      22.40892659      14.54594155       0.37942961       0.04600723       0.02531583       0.00000000
Au      16.56715883      22.40892659      14.54594155       0.37942961      -0.04600723       0.02531583      -0.00000000
Au      12.52472426      14.54594155       6.68295650       0.37942961       0.04600723       0.00000000      -0.02531583
Au      16.56715883      14.54594155       6.68295650       0.37942961      -0.04600723      -0.00000000      -0.02531583
Au      14.54594155      12.52472426       6.68295650       0.37942961       0.00000000       0.04600723      -0.02531583
Au      14.54594155      16.56715883       6.68295650       0.37942961      -0.00000000      -0.04600723      -0.02531583
Au      12.52472426      14.54594155      22.40892659       0.37942961       0.04600723       0.00000000       0.02531583
Au      16.56715883      14.54594155      22.40892659       0.37942961      -0.04600723      -0.00000000       0.02531583
Au      14.54594155      12.52472426      22.40892659       0.37942961       0.00000000       0.04600723       0.02531583
Au      14.54594155      16.56715883      22.40892659       0.37942961      -0.00000000      -0.04600723       0.02531583
Au      10.55056203       8.60267901      14.54594155       0.37279582       0.01463234       0.00067112      -0.00000000
Au      18.54132106       8.60267901      14.54594155       0.37279582      -0.01463234       0.00067112       0.00000000
Au      10.55056203      20.48920408      14.54594155       0.37279582       0.01463234      -0.00067112       0.00000000
Au      18.54132106      20.48920408      14.54594155       0.37279582      -0.01463234      -0.00067112       0.00000000
Au      10.55056203      14.54594155       8.60267901       0.37279582       0.01463234       0.00000000       0.00067112
Au      18.54132106      14.54594155       8.60267901       0.37279582      -0.01463234       0.00000000       0.00067112
Au      14.54594155      10.55056203       8.60267901       0.37279582      -0.00000000       0.01463234       0.00067112
Au      14.54594155      18.54132106       8.60267901       0.37279582       0.00000000      -0.01463234       0.00067112
Au      10.55056203      14.54594155      20.48920408       0.37279582       0.01463234       0.00000000      -0.00067112
Au      18.54132106      14.54594155      20.48920408       0.37279582      -0.01463234       0.00000000      -0.00067112
Au      14.54594155      10.55056203      20.48920408       0.37279582       0.00000000       0.01463234      -0.00067112
Au      14.54594155      18.54132106      20.48920408       0.37279582       0.00000000      -0.01463234      -0.00067112
Au       8.60267901      10.55056203      14.54594155       0.37279582       0.00067112       0.01463234       0.00000000
Au      20.48920408      10.55056203      14.54594155       0.37279582      -0.00067112       0.01463234       0.00000000
Au       8.60267901      18.54132106      14.54594155       0.37279582       0.00067112      -0.01463234       0.00000000
Au      20.48920408      18.54132106      14.54594155       0.37279582      -0.00067112      -0.01463234       0.00000000
Au       8.60267901      14.54594155      10.55056203       0.37279582       0.00067112      -0.00000000       0.01463234
Au      20.48920408      14.54594155      10.55056203       0.37279582      -0.00067112      -0.00000000       0.01463234
Au      14.54594155       8.60267901      10.55056203       0.37279582      -0.00000000       0.00067112       0.01463234
Au      14.54594155      20.48920408      10.55056203       0.37279582      -0.00000000      -0.00067112       0.01463234
Au       8.60267901      14.54594155      18.54132106       0.37279582       0.00067112       0.00000000      -0.01463234
Au      20.48920408      14.54594155      18.54132106       0.37279582      -0.00067112       0.00000000      -0.01463234
Au      14.54594155       8.60267901      18.54132106       0.37279582       0.00000000       0.00067112      -0.01463234
Au      14.54594155      20.48920408      18.54132106       0.37279582      -0.00000000      -0.00067112      -0.01463234
Au       6.68295650      12.52472426      14.54594155       0.37942961      -0.02531583       0.04600723      -0.00000000
Au      22.40892659      12.52472426      14.54594155       0.37942961       0.02531583       0.04600723       0.00000000
Au       6.68295650      16.56715883      14.54594155       0.37942961      -0.02531583      -0.04600723       0.00000000
Au      22.40892659      16.56715883      14.54594155       0.37942961       0.02531583      -0.04600723      -0.00000000
Au       6.68295650      14.54594155      12.52472426       0.37942961      -0.02531583      -0.00000000       0.04600723
Au      22.40892659      14.54594155      12.52472426       0.37942961       0.02531583      -0.00000000       0.04600723
Au      14.54594155       6.68295650      12.52472426       0.37942961       0.00000000      -0.02531583       0.04600723
Au      14.54594155      22.40892659      12.52472426       0.37942961       0.00000000       0.02531583       0.04600723
Au       6.68295650      14.54594155      16.56715883       0.37942961      -0.02531583       0.00000000      -0.04600723
Au      22.40892659      14.54594155      16.56715883       0.37942961       0.02531583      -0.00000000      -0.04600723
Au      14.54594155       6.68295650      16.56715883       0.37942961       0.00000000      -0.02531583      -0.04600723
Au      14.54594155      22.40892659      16.56715883       0.37942961      -0.00000000       0.02531583      -0.04600723
Au       8.54149390      12.49451240      12.49451240       0.21733214      -0.00941659       0.01378904       0.01378904
Au      10.49996113      10.49996113      12.50432089       0.21560737       0.01084391       0.01084391       0.01549712
Au      10.49996113      12.50432089      10.49996113       0.21560737       0.01084391       0.01549712       0.01084391
Au      12.49451240       8.54149390      12.49451240       0.21733214       0.01378904      -0.00941659       0.01378904
Au      12.50432089      10.49996113      10.49996113       0.21560737       0.01549712       0.01084391       0.01084391
Au      12.49451240      12.49451240       8.54149390       0.21733214       0.01378904       0.01378904      -0.00941659
Au       8.54149390      12.49451240      16.59737069       0.21733214      -0.00941659       0.01378904      -0.01378904
Au      10.49996113      10.49996113      16.58756220       0.21560737       0.01084391       0.01084391      -0.01549712
Au      10.49996113      12.50432089      18.59192197       0.21560737       0.01084391       0.01549712      -0.01084391
Au      12.49451240       8.54149390      16.59737069       0.21733214       0.01378904      -0.00941659      -0.01378904
Au      12.50432089      10.49996113      18.59192197       0.21560737       0.01549712       0.01084391      -0.01084391
Au      12.49451240      12.49451240      20.55038920       0.21733214       0.01378904       0.01378904       0.00941659
Au      20.55038920      12.49451240      12.49451240       0.21733214       0.00941659       0.01378904       0.01378904
Au      18.59192197      10.49996113      12.50432089       0.21560737      -0.01084391       0.01084391       0.01549712
Au      18.59192197      12.50432089      10.49996113       0.21560737      -0.01084391       0.01549712       0.01084391
Au      16.59737069       8.54149390      12.49451240       0.21733214      -0.01378904      -0.00941659       0.01378904
Au      16.58756220      10.49996113      10.49996113       0.21560737      -0.01549712       0.01084391       0.01084391
Au      16.59737069      12.49451240       8.54149390       0.21733214      -0.01378904       0.01378904      -0.00941659
Au      20.55038920      12.49451240      16.59737069       0.21733214       0.00941659       0.01378904      -0.01378904
Au      18.59192197      10.49996113      16.58756220       0.21560737      -0.01084391       0.01084391      -0.01549712
Au      18.59192197      12.50432089      18.59192197       0.21560737      -0.01084391       0.01549712      -0.01084391
Au      16.59737069       8.54149390      16.59737069       0.21733214      -0.01378904      -0.00941659      -0.01378904
Au      16.58756220      10.49996113      18.59192197       0.21560737      -0.01549712       0.01084391      -0.01084391
Au      16.59737069      12.49451240      20.55038920       0.21733214      -0.01378904       0.01378904       0.00941659
Au       8.54149390      16.59737069      12.49451240       0.21733214      -0.00941659      -0.01378904       0.01378904
Au      10.49996113      18.59192197      12.50432089       0.21560737       0.01084391      -0.01084391       0.01549712
Au      10.49996113      16.58756220      10.49996113       0.21560737       0.01084391      -0.01549712       0.01084391
Au      12.49451240      20.55038920      12.49451240       0.21733214       0.01378904       0.00941659       0.01378904
Au      12.50432089      18.59192197      10.49996113       0.21560737       0.01549712      -0.01084391       0.01084391
Au      12.49451240      16.59737069       8.54149390       0.21733214       0.01378904      -0.01378904      -0.00941659
Au       8.54149390      16.59737069      16.59737069       0.21733214      -0.00941659      -0.01378904      -0.01378904
Au      10.49996113      18.59192197      16.58756220       0.21560737       0.01084391      -0.01084391      -0.01549712
Au      10.49996113      16.58756220      18.59192197       0.21560737       0.01084391      -0.01549712      -0.01084391
Au      12.49451240      20.55038920      16.59737069       0.21733214       0.01378904       0.00941659      -0.01378904
Au      12.50432089      18.59192197      18.59192197       0.21560737       0.01549712      -0.01084391      -0.01084391
Au      12.49451240      16.59737069      20.55038920       0.21733214       0.01378904      -0.01378904       0.00941659
Au      20.55038920      16.59737069      12.49451240       0.21733214       0.00941659      -0.01378904       0.01378904
Au      18.59192197      18.59192197      12.50432089       0.21560737      -0.01084391      -0.01084391       0.01549712
Au      18.59192197      16.58756220      10.49996113       0.21560737      -0.01084391      -0.01549712       0.01084391
Au      16.59737069      20.55038920      12.49451240       0.21733214      -0.01378904       0.00941659       0.01378904
Au      16.58756220      18.59192197      10.49996113       0.21560737      -0.01549712      -0.01084391       0.01084391
Au      16.59737069      16.59737069       8.54149390       0.21733214      -0.01378904      -0.01378904      -0.00941659
Au      20.55038920      16.59737069      16.59737069       0.21733214       0.00941659      -0.01378904      -0.01378904
Au      18.59192197      18.59192197      16.58756220       0.21560737      -0.01084391      -0.01084391      -0.01549712
Au      18.59192197      16.58756220      18.59192197       0.21560737      -0.01084391      -0.01549712      -0.01084391
Au      16.59737069      20.55038920      16.59737069       0.21733214      -0.01378904       0.00941659      -0.01378904
Au      16.58756220      18.59192197      18.59192197       0.21560737      -0.01549712      -0.01084391      -0.01084391
Au      16.59737069      16.59737069      20.55038920       0.21733214      -0.01378904      -0.01378904       0.00941659
Au      14.54594155       8.55782909      14.54594155       0.03488370      -0.00000000      -0.04973401      -0.00000000
Au      16.58692540      10.51214215      14.54594155       0.01338129      -0.00305650      -0.00164124      -0.00000000
Au      18.57974094      12.50495770      14.54594155       0.01338129       0.00164124       0.00305650       0.00000000
Au      20.53405400      14.54594155      14.54594155       0.03488370       0.04973401      -0.00000000      -0.00000000
Au      12.50495770      10.51214215      14.54594155       0.01338129       0.00305650      -0.00164124      -0.00000000
Au      14.54594155      12.52918583      14.54594155      -0.00358484      -0.00000000       0.00690481      -0.00000000
Au      16.56269727      14.54594155      14.54594155      -0.00358484      -0.00690481      -0.00000000       0.00000000
Au      18.57974094      16.58692540      14.54594155       0.01338129       0.00164124      -0.00305650      -0.00000000
Au      10.51214215      12.50495770      14.54594155       0.01338129      -0.00164124       0.00305650       0.00000000
Au      12.52918583      14.54594155      14.54594155      -0.00358484       0.00690481      -0.00000000       0.00000000
Au      14.54594155      16.56269727      14.54594155      -0.00358484       0.00000000      -0.00690481      -0.00000000
Au      16.58692540      18.57974094      14.54594155       0.01338129      -0.00305650       0.00164124       0.00000000
Au       8.55782909      14.54594155      14.54594155       0.03488370      -0.04973401      -0.00000000       0.00000000
Au      10.51214215      16.58692540      14.54594155       0.01338129      -0.00164124      -0.00305650       0.00000000
Au      12.50495770      18.57974094      14.54594155       0.01338129       0.00305650       0.00164124       0.00000000
Au      14.54594155      20.53405400      14.54594155       0.03488370       0.00000000       0.04973401       0.00000000
Au      14.54594155      14.54594155       8.55782909       0.03488370       0.00000000      -0.00000000      -0.04973401
Au      14.54594155      14.54594155      20.53405400       0.03488370       0.00000000      -0.00000000       0.04973401
Au      14.54594155      12.50495770      10.51214215       0.01338129       0.00000000       0.00305650      -0.00164124
Au      16.58692540      14.54594155      10.51214215       0.01338129      -0.00305650       0.00000000      -0.00164124
Au      12.50495770      14.54594155      10.51214215       0.01338129       0.00305650       0.00000000      -0.00164124
Au      14.54594155      16.58692540      10.51214215       0.01338129      -0.00000000      -0.00305650      -0.00164124
Au      14.54594155      12.50495770      18.57974094       0.01338129       0.00000000       0.00305650       0.00164124
Au      16.58692540      14.54594155      18.57974094       0.01338129      -0.00305650      -0.00000000       0.00164124
Au      12.50495770      14.54594155      18.57974094       0.01338129       0.00305650       0.00000000       0.00164124
Au      14.54594155      16.58692540      18.57974094       0.01338129       0.00000000      -0.00305650       0.00164124
Au      14.54594155      10.51214215      12.50495770       0.01338129       0.00000000      -0.00164124       0.00305650
Au      16.58541836      12.50646473      12.50646473       0.00078028       0.00241869      -0.00241869      -0.00241869
Au      18.57974094      14.54594155      12.50495770       0.01338129       0.00164124       0.00000000       0.00305650
Au      12.50646473      12.50646473      12.50646473       0.00078028      -0.00241869      -0.00241869      -0.00241869
Au      14.54594155      14.54594155      12.52918583      -0.00358484      -0.00000000      -0.00000000       0.00690481
Au      16.58541836      16.58541836      12.50646473       0.00078028       0.00241869       0.00241869      -0.00241869
Au      10.51214215      14.54594155      12.50495770       0.01338129      -0.00164124      -0.00000000       0.00305650
Au      12.50646473      16.58541836      12.50646473       0.00078028      -0.00241869       0.00241869      -0.00241869
Au      14.54594155      18.57974094      12.50495770       0.01338129      -0.00000000       0.00164124       0.00305650
Au      14.54594155      10.51214215      16.58692540       0.01338129       0.00000000      -0.00164124      -0.00305650
Au      16.58541836      12.50646473      16.58541836       0.00078028       0.00241869      -0.00241869       0.00241869
Au      18.57974094      14.54594155      16.58692540       0.01338129       0.00164124       0.00000000      -0.00305650
Au      12.50646473      12.50646473      16.58541836       0.00078028      -0.00241869      -0.00241869       0.00241869
Au      14.54594155      14.54594155      16.56269727      -0.00358484       0.00000000       0.00000000      -0.00690481
Au      16.58541836      16.58541836      16.58541836       0.00078028       0.00241869       0.00241869       0.00241869
Au      10.51214215      14.54594155      16.58692540       0.01338129      -0.00164124      -0.00000000      -0.00305650
Au      12.50646473      16.58541836      16.58541836       0.00078028      -0.00241869       0.00241869       0.00241869
Au      14.54594155      18.57974094      16.58692540       0.01338129       0.00000000       0.00164124      -0.00305650
