33
Properties=species:S:1:pos:R:3:forces:R:3:energies:R:1 energy=14.463958813641579 free_energy=14.463958813641579 pbc="F F F"
Au       0.00000000      -0.00000000       0.00000000      -0.00000000       0.00000000      -0.00000000       0.00471571
Au       2.47738574       2.47738574       2.47738574      -0.01007489      -0.01007489      -0.01007489       0.58498523
Au      -2.47738574       2.47738574       2.47738574       0.01007489      -0.01007489      -0.01007489       0.58498523
Au       2.47738574      -2.47738574       2.47738574      -0.01007489       0.01007489      -0.01007489       0.58498523
Au       2.47738574       2.47738574      -2.47738574      -0.01007489      -0.01007489       0.01007489       0.58498523
Au      -2.47738574      -2.47738574       2.47738574       0.01007489       0.01007489      -0.01007489       0.58498523
Au      -2.47738574       2.47738574      -2.47738574       0.01007489      -0.01007489       0.01007489       0.58498523
Au       2.47738574      -2.47738574      -2.47738574      -0.01007489       0.01007489       0.01007489       0.58498523
Au      -2.47738574      -2.47738574      -2.47738574       0.01007489       0.01007489       0.01007489       0.58498523
Au       0.00000000       4.00849434       1.53110859       0.00000000      -0.01630152      -0.00622663       0.58498523
Au      -0.00000000      -4.00849434       1.53110859       0.00000000       0.01630152      -0.00622663       0.58498523
Au      -0.00000000       4.00849434      -1.53110859       0.00000000      -0.01630152       0.00622663       0.58498523
Au      -0.00000000      -4.00849434      -1.53110859      -0.00000000       0.01630152       0.00622663       0.58498523
Au       1.53110859      -0.00000000       4.00849434      -0.00622663       0.00000000      -0.01630152       0.58498523
Au      -1.53110859      -0.00000000       4.00849434       0.00622663      -0.00000000      -0.01630152       0.58498523
Au       1.53110859      -0.00000000      -4.00849434      -0.00622663       0.00000000       0.01630152       0.58498523
Au      -1.53110859       0.00000000      -4.00849434       0.00622663      -0.00000000       0.01630152       0.58498523
Au       4.00849434       1.53110859       0.00000000      -0.01630152      -0.00622663       0.00000000       0.58498523
Au       4.00849434      -1.53110859       0.00000000      -0.01630152       0.00622663       0.00000000       0.58498523
Au      -4.00849434       1.53110859       0.00000000       0.01630152      -0.00622663       0.00000000       0.58498523
Au      -4.00849434      -1.53110859       0.00000000       0.01630152       0.00622663      -0.00000000       0.58498523
Au       1.48748042       2.40679388       0.00000000      -0.01048012      -0.01695719      -0.00000000       0.22996154
Au      -0.00000000       1.48748042       2.40679388       0.00000000      -0.01048012      -0.01695719       0.22996154
Au      -1.48748042       2.40679388      -0.00000000       0.01048012      -0.01695719      -0.00000000       0.22996154
Au      -0.00000000       1.48748042      -2.40679388       0.00000000      -0.01048012       0.01695719       0.22996154
Au       2.40679388      -0.00000000      -1.48748042      -0.01695719       0.00000000       0.01048012       0.22996154
Au       2.40679388      -0.00000000       1.48748042      -0.01695719       0.00000000      -0.01048012       0.22996154
Au      -1.48748042      -2.40679388       0.00000000       0.01048012       0.01695719      -0.00000000       0.22996154
Au      -0.00000000      -1.48748042       2.40679388       0.00000000       0.01048012      -0.01695719       0.22996154
Au       1.48748042      -2.40679388      -0.00000000      -0.01048012       0.01695719       0.00000000       0.22996154
Au       0.00000000      -1.48748042      -2.40679388      -0.00000000       0.01048012       0.01695719       0.22996154
Au      -2.40679388       0.00000000      -1.48748042       0.01695719      -0.00000000       0.01048012       0.22996154
Au      -2.40679388      -0.00000000       1.48748042       0.01695719       0.00000000      -0.01048012       0.22996154
