2925
Properties=species:S:1:pos:R:3:forces:R:3:energies:R:1 energy=400.9820897318096 free_energy=400.9820897318096 pbc="F F F"
Pt      23.03657963      23.03657963      23.03657963       0.00779045       0.00779045       0.00779045       1.12724285
Pt      23.03661123     -23.03661123     -23.03661123       0.00660390      -0.00660390      -0.00660390       1.12729389
Pt     -23.03658187      23.03658187     -23.03658187      -0.00770653       0.00770653      -0.00770653       1.12724645
Pt     -23.03661508     -23.03661508      23.03661508      -0.00645933      -0.00645933       0.00645933       1.12730012
Pt      23.14732076      21.25026264      21.25026264       0.03061221       0.02148267       0.02148267       0.65342018
Pt      21.25026264      23.14732076      21.25026264       0.02148267       0.03061221       0.02148267       0.65342018
Pt      21.25026264      21.25026264      23.14732076       0.02148267       0.02148267       0.03061221       0.65342018
Pt      21.25024325     -21.25024325     -23.14733448       0.02221065      -0.02221065      -0.03009796       0.65340484
Pt      21.25024325     -23.14733448     -21.25024325       0.02221065      -0.03009796      -0.02221065       0.65340484
Pt     -23.14732173      21.25026127     -21.25026127      -0.03057584       0.02153416      -0.02153416       0.65341909
Pt      23.12727009      19.34621396      19.34621396       0.03305404       0.00698848       0.00698848       0.64000043
Pt      19.34621396      23.12727009      19.34621396       0.00698848       0.03305404       0.00698848       0.64000043
Pt      19.34621396      19.34621396      23.12727009       0.00698848       0.00698848       0.03305404       0.64000043
Pt      19.34621319     -19.34621319     -23.12726803       0.00701620      -0.00701620      -0.03313203       0.63999641
Pt      19.34621319     -23.12726803     -19.34621319       0.00701620      -0.03313203      -0.00701620       0.63999641
Pt     -23.12726995      19.34621390     -19.34621390      -0.03305955       0.00699044      -0.00699044       0.64000015
Pt      23.12753175      17.44084079      17.44084079       0.02208417      -0.01479778      -0.01479778       0.64000284
Pt      17.44084079      23.12753175      17.44084079      -0.01479778       0.02208417      -0.01479778       0.64000284
Pt      17.44084079      17.44084079      23.12753175      -0.01479778      -0.01479778       0.02208417       0.64000284
Pt      17.44084127     -17.44084127     -23.12753152      -0.01481618       0.01481618      -0.02209287       0.64000256
Pt      17.44084127     -23.12753152     -17.44084127      -0.01481618      -0.02209287       0.01481618       0.64000256
Pt     -23.12753174      17.44084082     -17.44084082      -0.02208479      -0.01479909       0.01479909       0.64000282
Pt      23.12590803      15.51663291      15.51663291       0.01206517      -0.00233310      -0.00233310       0.64164521
Pt      15.51663291      23.12590803      15.51663291      -0.00233310       0.01206517      -0.00233310       0.64164521
Pt      15.51663291      15.51663291      23.12590803      -0.00233310      -0.00233310       0.01206517       0.64164521
Pt      15.51663291     -15.51663291     -23.12590809      -0.00233309       0.00233309      -0.01206303       0.64164534
Pt      15.51663291     -23.12590809     -15.51663291      -0.00233309      -0.01206303       0.00233309       0.64164534
Pt     -23.12590804      15.51663291     -15.51663291      -0.01206502      -0.00233310       0.00233310       0.64164522
Pt      23.13186726      13.58862418      13.58862418      -0.01389512       0.00414469       0.00414469       0.64147112
Pt      13.58862418      23.13186726      13.58862418       0.00414469      -0.01389512       0.00414469       0.64147112
Pt      13.58862418      13.58862418      23.13186726       0.00414469       0.00414469      -0.01389512       0.64147112
Pt      13.58862417     -13.58862417     -23.13186726       0.00414501      -0.00414501       0.01389518       0.64147112
Pt      13.58862417     -23.13186726     -13.58862417       0.00414501       0.01389518      -0.00414501       0.64147112
Pt     -23.13186726      13.58862418     -13.58862418       0.01389512       0.00414471      -0.00414471       0.64147112
Pt      23.13737976      11.66087917      11.66087917      -0.00473392      -0.01260148      -0.01260148       0.64142850
Pt      11.66087917      23.13737976      11.66087917      -0.01260148      -0.00473392      -0.01260148       0.64142850
Pt      11.66087917      11.66087917      23.13737976      -0.01260148      -0.01260148      -0.00473392       0.64142850
Pt      11.66087917     -11.66087917     -23.13737975      -0.01260149       0.01260149       0.00473388       0.64142850
Pt      11.66087917     -23.13737975     -11.66087917      -0.01260149       0.00473388       0.01260149       0.64142850
Pt     -23.13737976      11.66087917     -11.66087917       0.00473392      -0.01260148       0.01260148       0.64142850
Pt      23.15064171       9.72350348       9.72350348      -0.04014846      -0.00806751      -0.00806751       0.64409730
Pt       9.72350348      23.15064171       9.72350348      -0.00806751      -0.04014846      -0.00806751       0.64409730
Pt       9.72350348       9.72350348      23.15064171      -0.00806751      -0.00806751      -0.04014846       0.64409730
Pt       9.72350348      -9.72350348     -23.15064171      -0.00806751       0.00806751       0.04014846       0.64409730
Pt       9.72350348     -23.15064171      -9.72350348      -0.00806751       0.04014846       0.00806751       0.64409730
Pt     -23.15064171       9.72350348      -9.72350348       0.04014846      -0.00806751       0.00806751       0.64409730
Pt      23.15949771       7.78165373       7.78165373      -0.03403074       0.00308223       0.00308223       0.64447749
Pt       7.78165373      23.15949771       7.78165373       0.00308223      -0.03403074       0.00308223       0.64447749
Pt       7.78165373       7.78165373      23.15949771       0.00308223       0.00308223      -0.03403074       0.64447749
Pt       7.78165373      -7.78165373     -23.15949771       0.00308223      -0.00308223       0.03403074       0.64447749
Pt       7.78165373     -23.15949771      -7.78165373       0.00308223       0.03403074      -0.00308223       0.64447749
Pt     -23.15949771       7.78165373      -7.78165373       0.03403074       0.00308223      -0.00308223       0.64447749
Pt      23.16530301       5.83786776       5.83786776      -0.02070251       0.00422702       0.00422702       0.64420842
Pt       5.83786776      23.16530301       5.83786776       0.00422702      -0.02070251       0.00422702       0.64420842
Pt       5.83786776       5.83786776      23.16530301       0.00422702       0.00422702      -0.02070251       0.64420842
Pt       5.83786776      -5.83786776     -23.16530301       0.00422702      -0.00422702       0.02070251       0.64420842
Pt       5.83786776     -23.16530301      -5.83786776       0.00422702       0.02070251      -0.00422702       0.64420842
Pt     -23.16530301       5.83786776      -5.83786776       0.02070251       0.00422702      -0.00422702       0.64420842
Pt      23.17053717       3.89233741       3.89233741      -0.02686410       0.00444977       0.00444977       0.64434974
Pt       3.89233741      23.17053717       3.89233741       0.00444977      -0.02686410       0.00444977       0.64434974
Pt       3.89233741       3.89233741      23.17053717       0.00444977       0.00444977      -0.02686410       0.64434974
Pt       3.89233741      -3.89233741     -23.17053717       0.00444977      -0.00444977       0.02686410       0.64434974
Pt       3.89233741     -23.17053717      -3.89233741       0.00444977       0.02686410      -0.00444977       0.64434974
Pt     -23.17053717       3.89233741      -3.89233741       0.02686410       0.00444977      -0.00444977       0.64434974
Pt      23.17359025       1.94612736       1.94612736      -0.02928517       0.00441785       0.00441785       0.64419078
Pt       1.94612736      23.17359025       1.94612736       0.00441785      -0.02928517       0.00441785       0.64419078
Pt       1.94612736       1.94612736      23.17359025       0.00441785       0.00441785      -0.02928517       0.64419078
Pt       1.94612736      -1.94612736     -23.17359025       0.00441785      -0.00441785       0.02928517       0.64419078
Pt       1.94612736     -23.17359025      -1.94612736       0.00441785       0.02928517      -0.00441785       0.64419078
Pt     -23.17359025       1.94612736      -1.94612736       0.02928517       0.00441785      -0.00441785       0.64419078
Pt      23.17450196       0.00000000       0.00000000      -0.02856416      -0.00000000      -0.00000000       0.64403062
Pt      -0.00000000      23.17450196       0.00000000      -0.00000000      -0.02856416      -0.00000000       0.64403062
Pt       0.00000000      -0.00000000      23.17450196      -0.00000000      -0.00000000      -0.02856416       0.64403062
Pt       0.00000000       0.00000000     -23.17450196       0.00000000      -0.00000000       0.02856416       0.64403062
Pt       0.00000000     -23.17450196      -0.00000000      -0.00000000       0.02856416       0.00000000       0.64403062
Pt     -23.17450196       0.00000000      -0.00000000       0.02856416      -0.00000000       0.00000000       0.64403062
Pt      23.17359025      -1.94612736      -1.94612736      -0.02928517      -0.00441785      -0.00441785       0.64419078
Pt      -1.94612736      23.17359025      -1.94612736      -0.00441785      -0.02928517      -0.00441785       0.64419078
Pt      -1.94612736      -1.94612736      23.17359025      -0.00441785      -0.00441785      -0.02928517       0.64419078
Pt      -1.94612736       1.94612736     -23.17359025      -0.00441785       0.00441785       0.02928517       0.64419078
Pt      -1.94612736     -23.17359025       1.94612736      -0.00441785       0.02928517       0.00441785       0.64419078
Pt     -23.17359025      -1.94612736       1.94612736       0.02928517      -0.00441785       0.00441785       0.64419078
Pt      23.17053717      -3.89233741      -3.89233741      -0.02686410      -0.00444977      -0.00444977       0.64434974
Pt      -3.89233741      23.17053717      -3.89233741      -0.00444977      -0.02686410      -0.00444977       0.64434974
Pt      -3.89233741      -3.89233741      23.17053717      -0.00444977      -0.00444977      -0.02686410       0.64434974
Pt      -3.89233741       3.89233741     -23.17053717      -0.00444977       0.00444977       0.02686410       0.64434974
Pt      -3.89233741     -23.17053717       3.89233741      -0.00444977       0.02686410       0.00444977       0.64434974
Pt     -23.17053717      -3.89233741       3.89233741       0.02686410      -0.00444977       0.00444977       0.64434974
Pt      23.16530301      -5.83786776      -5.83786776      -0.02070251      -0.00422702      -0.00422702       0.64420842
Pt      -5.83786776      23.16530301      -5.83786776      -0.00422702      -0.02070251      -0.00422702       0.64420842
Pt      -5.83786776      -5.83786776      23.16530301      -0.00422702      -0.00422702      -0.02070251       0.64420842
Pt      -5.83786776       5.83786776     -23.16530301      -0.00422702       0.00422702       0.02070251       0.64420842
Pt      -5.83786776     -23.16530301       5.83786776      -0.00422702       0.02070251       0.00422702       0.64420842
Pt     -23.16530301      -5.83786776       5.83786776       0.02070251      -0.00422702       0.00422702       0.64420842
Pt      23.15949771      -7.78165373      -7.78165373      -0.03403074      -0.00308223      -0.00308223       0.64447749
Pt      -7.78165373      23.15949771      -7.78165373      -0.00308223      -0.03403074      -0.00308223       0.64447749
Pt      -7.78165373      -7.78165373      23.15949771      -0.00308223      -0.00308223      -0.03403074       0.64447749
Pt      -7.78165373       7.78165373     -23.15949771      -0.00308223       0.00308223       0.03403074       0.64447749
Pt      -7.78165373     -23.15949771       7.78165373      -0.00308223       0.03403074       0.00308223       0.64447749
Pt     -23.15949771      -7.78165373       7.78165373       0.03403074      -0.00308223       0.00308223       0.64447749
Pt      23.15064171      -9.72350348      -9.72350348      -0.04014846       0.00806751       0.00806751       0.64409730
Pt      -9.72350348      23.15064171      -9.72350348       0.00806751      -0.04014846       0.00806751       0.64409730
Pt      -9.72350348      -9.72350348      23.15064171       0.00806751       0.00806751      -0.04014846       0.64409730
Pt      -9.72350348       9.72350348     -23.15064171       0.00806751      -0.00806751       0.04014846       0.64409730
Pt      -9.72350348     -23.15064171       9.72350348       0.00806751       0.04014846      -0.00806751       0.64409730
Pt     -23.15064171      -9.72350348       9.72350348       0.04014846       0.00806751      -0.00806751       0.64409730
Pt      23.13737975     -11.66087917     -11.66087917      -0.00473388       0.01260149       0.01260149       0.64142850
Pt     -11.66087917      23.13737976     -11.66087917       0.01260148      -0.00473392       0.01260148       0.64142850
Pt     -11.66087917     -11.66087917      23.13737975       0.01260149       0.01260149      -0.00473388       0.64142850
Pt     -11.66087917      11.66087917     -23.13737976       0.01260148      -0.01260148       0.00473392       0.64142850
Pt     -11.66087917     -23.13737975      11.66087917       0.01260149       0.00473388      -0.01260149       0.64142850
Pt     -23.13737975     -11.66087917      11.66087917       0.00473388       0.01260149      -0.01260149       0.64142850
Pt      23.13186726     -13.58862417     -13.58862417      -0.01389518      -0.00414501      -0.00414501       0.64147112
Pt     -13.58862418      23.13186726     -13.58862418      -0.00414471      -0.01389512      -0.00414471       0.64147112
Pt     -13.58862417     -13.58862417      23.13186726      -0.00414505      -0.00414505      -0.01389518       0.64147112
Pt     -13.58862418      13.58862418     -23.13186726      -0.00414471       0.00414471       0.01389512       0.64147112
Pt     -13.58862417     -23.13186726      13.58862417      -0.00414505       0.01389518       0.00414505       0.64147112
Pt     -23.13186726     -13.58862417      13.58862417       0.01389518      -0.00414505       0.00414505       0.64147112
Pt      23.12590809     -15.51663291     -15.51663291       0.01206303       0.00233309       0.00233309       0.64164534
Pt     -15.51663291      23.12590804     -15.51663291       0.00233310       0.01206502       0.00233310       0.64164522
Pt     -15.51663291     -15.51663291      23.12590810       0.00233308       0.00233308       0.01206277       0.64164535
Pt     -15.51663291      15.51663291     -23.12590804       0.00233310      -0.00233310      -0.01206502       0.64164522
Pt     -15.51663291     -23.12590810      15.51663291       0.00233308      -0.01206277      -0.00233308       0.64164535
Pt     -23.12590810     -15.51663291      15.51663291      -0.01206277       0.00233308      -0.00233308       0.64164535
Pt      23.12753152     -17.44084127     -17.44084127       0.02209287       0.01481618       0.01481618       0.64000256
Pt     -17.44084082      23.12753174     -17.44084082       0.01479909       0.02208479       0.01479909       0.64000282
Pt     -17.44084133     -17.44084133      23.12753149       0.01481843       0.01481843       0.02209393       0.64000252
Pt     -17.44084082      17.44084082     -23.12753174       0.01479909      -0.01479909      -0.02208479       0.64000282
Pt     -17.44084133     -23.12753149      17.44084133       0.01481843      -0.02209393      -0.01481843       0.64000252
Pt     -23.12753149     -17.44084133      17.44084133      -0.02209393       0.01481843      -0.01481843       0.64000252
Pt      23.12726803     -19.34621319     -19.34621319       0.03313203      -0.00701620      -0.00701620       0.63999641
Pt     -19.34621390      23.12726995     -19.34621390      -0.00699044       0.03305955      -0.00699044       0.64000015
Pt     -19.34621310     -19.34621310      23.12726778      -0.00701957      -0.00701957       0.03314154       0.63999592
Pt     -19.34621390      19.34621390     -23.12726995      -0.00699044       0.00699044      -0.03305955       0.64000015
Pt     -19.34621310     -23.12726778      19.34621310      -0.00701957      -0.03314154       0.00701957       0.63999592
Pt     -23.12726778     -19.34621310      19.34621310      -0.03314154      -0.00701957       0.00701957       0.63999592
Pt      23.14733448     -21.25024325     -21.25024325       0.03009796      -0.02221065      -0.02221065       0.65340484
Pt     -21.25026127      23.14732173     -21.25026127      -0.02153416       0.03057584      -0.02153416       0.65341909
Pt     -21.25024089     -21.25024089      23.14733615      -0.02229935      -0.02229935       0.03003531       0.65340298
Pt     -21.25026127      21.25026127     -23.14732173      -0.02153416       0.02153416      -0.03057584       0.65341909
Pt     -21.25024089     -23.14733615      21.25024089      -0.02229935      -0.03003531       0.02229935       0.65340298
Pt     -23.14733615     -21.25024089      21.25024089      -0.03003531      -0.02229935       0.02229935       0.65340298
Pt     -19.33824865      21.31331997     -21.31331997      -0.01476282       0.01824339      -0.01824339       0.30867229
Pt     -17.41577081      21.33181563     -19.39518895       0.01585096      -0.00634295       0.00068843       0.30288581
Pt     -17.41577081      19.39518895     -21.33181563       0.01585096      -0.00068843       0.00634295       0.30288581
Pt     -15.48692448      21.34376157     -17.47659117      -0.00113849      -0.00079945      -0.01307391       0.30297165
Pt     -15.48753719      19.39974820     -19.39974820      -0.00409944       0.01864155      -0.01864155       0.28948659
Pt     -15.48692448      17.47659117     -21.34376157      -0.00113849       0.01307391       0.00079945       0.30297165
Pt     -13.55144673      21.35738715     -15.55454687      -0.00465621      -0.00807028      -0.00091325       0.30460478
Pt     -13.55121828      19.41639708     -17.48449411      -0.00514640      -0.00200307      -0.00680334       0.29060161
Pt     -13.55121828      17.48449411     -19.41639708      -0.00514640       0.00680334       0.00200307       0.29060161
Pt     -13.55144673      15.55454687     -21.35738715      -0.00465621       0.00091325       0.00807028       0.30460478
Pt     -11.61493611      21.37114026     -13.62959357      -0.00859644      -0.00812550       0.00589397       0.30645683
Pt     -11.61188378      19.42980053     -15.55874803      -0.01200402      -0.00746240       0.00099134       0.29173920
Pt     -11.61218243      17.49541990     -17.49541990      -0.00409387      -0.00516245       0.00516245       0.29075867
Pt     -11.61188378      15.55874803     -19.42980053      -0.01200402      -0.00099134       0.00746240       0.29173920
Pt     -11.61493611      13.62959357     -21.37114026      -0.00859644      -0.00589397       0.00812550       0.30645683
Pt      -9.67684714      21.39103055     -11.69743501      -0.00955741      -0.01015937       0.01941900       0.30789909
Pt      -9.67404590      19.44723751     -13.62482381      -0.01430464      -0.01076755      -0.01132290       0.29231548
Pt      -9.67292462      17.50409262     -15.56002177      -0.01545949       0.00321471      -0.01093777       0.29126008
Pt      -9.67292462      15.56002177     -17.50409262      -0.01545949       0.01093777      -0.00321471       0.29126008
Pt      -9.67404590      13.62482381     -19.44723751      -0.01430464       0.01132290       0.01076755       0.29231548
Pt      -9.67684714      11.69743501     -21.39103055      -0.00955741      -0.01941900       0.01015937       0.30789909
Pt      -7.73657114      21.40674468      -9.76050711      -0.02290231       0.00087585       0.01792897       0.30856038
Pt      -7.73709097      19.46604415     -11.68942626      -0.00667990      -0.00974977      -0.01194498       0.29250008
Pt      -7.73493520      17.51970980     -13.62326907      -0.01049473       0.00532398      -0.02089971       0.29154441
Pt      -7.73327359      15.56776497     -15.56776497      -0.01654441       0.01558663      -0.01558663       0.29196885
Pt      -7.73493520      13.62326907     -17.51970980      -0.01049473       0.02089971      -0.00532398       0.29154441
Pt      -7.73709097      11.68942626     -19.46604415      -0.00667990       0.01194498       0.00974977       0.29250008
Pt      -7.73657114       9.76050711     -21.40674468      -0.02290231      -0.01792897      -0.00087585       0.30856038
Pt      -5.79430920      21.41910649      -7.82110873      -0.01860691      -0.00184597       0.01502658       0.30948543
Pt      -5.79859724      19.48195113      -9.75310105       0.00448023      -0.00827646      -0.00560943       0.29275000
Pt      -5.79699597      17.53661031     -11.68625006      -0.00149470       0.00377133      -0.01551853       0.29182618
Pt      -5.79406515      15.58244081     -13.63031289      -0.00907847       0.01070257      -0.01462839       0.29258484
Pt      -5.79406515      13.63031289     -15.58244081      -0.00907847       0.01462839      -0.01070257       0.29258484
Pt      -5.79699597      11.68625006     -17.53661031      -0.00149470       0.01551853      -0.00377133       0.29182618
Pt      -5.79859724       9.75310105     -19.48195113       0.00448023       0.00560943       0.00827646       0.29275000
Pt      -5.79430920       7.82110873     -21.41910649      -0.01860691      -0.01502658       0.00184597       0.30948543
Pt      -3.84957780      21.42901912      -5.87964199      -0.01505414      -0.00602131       0.01921923       0.31034493
Pt      -3.85718789      19.49590837      -7.81476611       0.01023653      -0.01146990       0.00290087       0.29321662
Pt      -3.85732563      17.55208258      -9.74707106       0.00588568       0.00569634      -0.01479915       0.29203461
Pt      -3.85485920      15.59769948     -11.68983171      -0.00229136       0.01052256      -0.01572891       0.29291089
Pt      -3.85409904      13.64232298     -13.64232298      -0.00191389       0.01425612      -0.01425612       0.29322733
Pt      -3.85485920      11.68983171     -15.59769948      -0.00229136       0.01572891      -0.01052256       0.29291089
Pt      -3.85732563       9.74707106     -17.55208258       0.00588568       0.01479915      -0.00569634       0.29203461
Pt      -3.85718789       7.81476611     -19.49590837       0.01023653      -0.00290087       0.01146990       0.29321662
Pt      -3.84957780       5.87964199     -21.42901912      -0.01505414      -0.01921923       0.00602131       0.31034493
Pt      -1.90299588      21.43582126      -3.93603459      -0.01956674      -0.00763408       0.02146930       0.31095784
Pt      -1.91249223      19.50774399      -5.87363940       0.00924231      -0.02049978       0.00882543       0.29381096
Pt      -1.91463295      17.56672005      -7.80659477       0.00768659      -0.00240388      -0.00868780       0.29251839
Pt      -1.91356539      15.61233222      -9.74821459       0.00481940       0.00861474      -0.01478190       0.29321258
Pt      -1.91337612      13.65620210     -11.70008580       0.00604723       0.01157124      -0.01318867       0.29369913
Pt      -1.91337612      11.70008580     -13.65620210       0.00604723       0.01318867      -0.01157124       0.29369913
Pt      -1.91356539       9.74821459     -15.61233222       0.00481940       0.01478190      -0.00861474       0.29321258
Pt      -1.91463295       7.80659477     -17.56672005       0.00768659       0.00868780       0.00240388       0.29251839
Pt      -1.91249223       5.87363940     -19.50774399       0.00924231      -0.00882543       0.02049978       0.29381096
Pt      -1.90299588       3.93603459     -21.43582126      -0.01956674      -0.02146930       0.00763408       0.31095784
Pt       0.04406369      21.43937920      -1.99067047      -0.02134391      -0.01098084       0.02174467       0.31135677
Pt       0.03474231      19.51585927      -3.92951114       0.00283883      -0.03072972       0.01026675       0.29436290
Pt       0.03045522      17.57843611      -5.86469982       0.00391879      -0.01487694      -0.00253647       0.29314920
Pt       0.03055408      15.62482820      -7.80685347       0.00388768       0.00142760      -0.00480178       0.29386999
Pt       0.03057346      13.66913608      -9.75784877       0.00843579       0.00755439      -0.00627970       0.29428298
Pt       0.03048680      11.71291062     -11.71291062       0.00933313       0.00766052      -0.00766052       0.29444751
Pt       0.03057346       9.75784877     -13.66913608       0.00843579       0.00627970      -0.00755439       0.29428298
Pt       0.03055408       7.80685347     -15.62482820       0.00388768       0.00480178      -0.00142760       0.29386999
Pt       0.03045522       5.86469982     -17.57843611       0.00391879       0.00253647       0.01487694       0.29314920
Pt       0.03474231       3.92951114     -19.51585927       0.00283883      -0.01026675       0.03072972       0.29436290
Pt       0.04406369       1.99067047     -21.43937920      -0.02134391      -0.02174467       0.01098084       0.31135677
Pt       1.99067047      21.43937920      -0.04406369      -0.02174467      -0.01098084       0.02134391       0.31135677
Pt       1.98277761      19.51877864      -1.98277761      -0.00580056      -0.03537331       0.00580056       0.29460515
Pt       1.97624089      17.58494781      -3.92122182      -0.00039611      -0.02302247       0.00102134       0.29357892
Pt       1.97600277      15.63308573      -5.86464701      -0.00127328      -0.00421323       0.00203263       0.29446658
Pt       1.97730940      13.67894298      -7.81524879       0.00282012       0.00279781       0.00292603       0.29497852
Pt       1.97793707      11.72388413      -9.76900482       0.00693342       0.00511620      -0.00212869       0.29511981
Pt       1.97793707       9.76900482     -11.72388413       0.00693342       0.00212869      -0.00511620       0.29511981
Pt       1.97730940       7.81524879     -13.67894298       0.00282012      -0.00292603      -0.00279781       0.29497852
Pt       1.97600277       5.86464701     -15.63308573      -0.00127328      -0.00203263       0.00421323       0.29446658
Pt       1.97624089       3.92122182     -17.58494781      -0.00039611      -0.00102134       0.02302247       0.29357892
Pt       1.98277761       1.98277761     -19.51877864      -0.00580056      -0.00580056       0.03537331       0.29460515
Pt       1.99067047       0.04406369     -21.43937920      -0.02174467      -0.02134391       0.01098084       0.31135677
Pt       3.93603459      21.43582126       1.90299588      -0.02146930      -0.00763408       0.01956674       0.31095784
Pt       3.92951114      19.51585927      -0.03474231      -0.01026675      -0.03072972      -0.00283883       0.29436290
Pt       3.92122182      17.58494781      -1.97624089      -0.00102134      -0.02302247       0.00039611       0.29357892
Pt       3.92100892      15.63596250      -3.92100892      -0.00396904      -0.00615167       0.00396904       0.29469062
Pt       3.92465599      13.68416033      -5.87090364      -0.00335569       0.00010443       0.00588182       0.29539478
Pt       3.92723973      11.73110025      -7.82370164       0.00182209       0.00336016       0.00244064       0.29565384
Pt       3.92800295       9.77732785      -9.77732785       0.00519779       0.00299920      -0.00299920       0.29566671
Pt       3.92723973       7.82370164     -11.73110025       0.00182209      -0.00244064      -0.00336016       0.29565384
Pt       3.92465599       5.87090364     -13.68416033      -0.00335569      -0.00588182      -0.00010443       0.29539478
Pt       3.92100892       3.92100892     -15.63596250      -0.00396904      -0.00396904       0.00615167       0.29469062
Pt       3.92122182       1.97624089     -17.58494781      -0.00102134      -0.00039611       0.02302247       0.29357892
Pt       3.92951114       0.03474231     -19.51585927      -0.01026675       0.00283883       0.03072972       0.29436290
Pt       3.93603459      -1.90299588     -21.43582126      -0.02146930      -0.01956674       0.00763408       0.31095784
Pt       5.87964199      21.42901912       3.84957780      -0.01921923      -0.00602131       0.01505414       0.31034493
Pt       5.87363940      19.50774399       1.91249223      -0.00882543      -0.02049978      -0.00924231       0.29381096
Pt       5.86469982      17.57843611      -0.03045522       0.00253647      -0.01487694      -0.00391879       0.29314920
Pt       5.86464701      15.63308573      -1.97600277      -0.00203263      -0.00421323       0.00127328       0.29446658
Pt       5.87090364      13.68416033      -3.92465599      -0.00588182       0.00010443       0.00335569       0.29539478
Pt       5.87628184      11.73359005      -5.87628184      -0.00205860       0.00277279       0.00205860       0.29584719
Pt       5.87888314       9.78168153      -7.82897533       0.00308599       0.00397605      -0.00185318       0.29597909
Pt       5.87888314       7.82897533      -9.78168153       0.00308599       0.00185318      -0.00397605       0.29597909
Pt       5.87628184       5.87628184     -11.73359005      -0.00205860      -0.00205860      -0.00277279       0.29584719
Pt       5.87090364       3.92465599     -13.68416033      -0.00588182      -0.00335569      -0.00010443       0.29539478
Pt       5.86464701       1.97600277     -15.63308573      -0.00203263      -0.00127328       0.00421323       0.29446658