2882
Properties=species:S:1:pos:R:3:forces:R:3:energies:R:1 energy=371.0746895206647 free_energy=371.0746895206647 pbc="F F F"
Pt      16.63739680      16.63739680      33.27479359      -0.00147164      -0.00147164      -0.00294328       0.94464218
Pt      16.63739672     -33.27479344     -16.63739672      -0.00146923       0.00293847       0.00146923       0.94464204
Pt     -33.27479413      16.63739706     -16.63739706       0.00296034      -0.00148017       0.00148017       0.94464269
Pt      16.77907066      14.75772283      31.53679349      -0.00245087       0.01974561       0.01729475       0.43423395
Pt      14.75772283      16.77907066      31.53679349       0.01974561      -0.00245087       0.01729475       0.43423395
Pt      14.78910234      14.78910234      33.31221544      -0.00141736      -0.00141736      -0.00287454       0.63539750
Pt      14.75772291     -31.53679355     -16.77907063       0.01974284      -0.01729287       0.00244997       0.43423402
Pt      14.78910238     -33.31221540     -14.78910238      -0.00141879       0.00287328       0.00141879       0.63539748
Pt     -33.31221558      14.78910218     -14.78910218       0.00287902      -0.00141229       0.00141229       0.63539755
Pt      16.77697617      12.84722478      29.62420095       0.00351091       0.00522765       0.00873856       0.40336532
Pt      12.84722478      16.77697617      29.62420095       0.00522765       0.00351091       0.00873856       0.40336532
Pt      12.85006174      12.85006174      33.27227575       0.00573210       0.00573210       0.02293959       0.64179812
Pt      12.84722478     -29.62420095     -16.77697617       0.00522779      -0.00873855      -0.00351077       0.40336532
Pt      12.85006174     -33.27227576     -12.85006174       0.00573201      -0.02293942      -0.00573201       0.64179813
Pt     -33.27227574      12.85006173     -12.85006173      -0.02294020       0.00573242      -0.00573242       0.64179808
Pt      16.79629295      10.92515864      27.72145159      -0.01100240       0.00717120      -0.00383119       0.40195287
Pt      10.92515864      16.79629295      27.72145159       0.00717120      -0.01100240      -0.00383119       0.40195287
Pt      10.90549188      10.90549188      33.23661422       0.00473028       0.00473028       0.04455076       0.63475573
Pt      10.92515864     -27.72145159     -16.79629295       0.00717124       0.00383115       0.01100240       0.40195287
Pt      10.90549188     -33.23661422     -10.90549188       0.00473032      -0.04455073      -0.00473032       0.63475573
Pt     -33.23661421      10.90549189     -10.90549189      -0.04455085       0.00473016      -0.00473016       0.63475573
Pt      16.81711390       8.99480577      25.81191967      -0.01433228       0.01320033      -0.00113195       0.40247952
Pt       8.99480577      16.81711390      25.81191967       0.01320033      -0.01433228      -0.00113195       0.40247952
Pt       8.99221329       8.99221329      33.17547608       0.00608442       0.00608442       0.01416211       0.76419172
Pt       8.99480577     -25.81191967     -16.81711390       0.01320032       0.00113195       0.01433228       0.40247952
Pt       8.99221329     -33.17547608      -8.99221329       0.00608442      -0.01416212      -0.00608442       0.76419172
Pt     -33.17547608       8.99221329      -8.99221329      -0.01416208       0.00608442      -0.00608442       0.76419172
Pt      16.84355169       7.05882151      23.90237320      -0.01591937       0.01064122      -0.00527815       0.40316269
Pt       7.05882151      16.84355169      23.90237320       0.01064122      -0.01591937      -0.00527815       0.40316269
Pt       7.05882151     -23.90237320     -16.84355169       0.01064122       0.00527815       0.01591937       0.40316269
Pt      16.86947341       5.11664220      21.98611561      -0.01220556       0.01080132      -0.00140424       0.40355054
Pt       5.11664220      16.86947341      21.98611561       0.01080132      -0.01220556      -0.00140424       0.40355054
Pt       5.11664220     -21.98611561     -16.86947341       0.01080132       0.00140424       0.01220556       0.40355054
Pt      16.89243343       3.17202335      20.06445678      -0.00539501       0.01171275       0.00631774       0.40373684
Pt       3.17202335      16.89243343      20.06445678       0.01171275      -0.00539501       0.00631774       0.40373684
Pt       3.17202335     -20.06445678     -16.89243343       0.01171275      -0.00631774       0.00539501       0.40373684
Pt      16.91408754       1.22578509      18.13987264      -0.00128531       0.01303484       0.01174954       0.40393725
Pt       1.22578509      16.91408754      18.13987264       0.01303484      -0.00128531       0.01174954       0.40393725
Pt       1.22578509     -18.13987264     -16.91408754       0.01303484      -0.01174954       0.00128531       0.40393725
Pt      16.93428460      -0.72138962      16.21289498      -0.00268029       0.01751212       0.01483182       0.40421065
Pt      -0.72138962      16.93428460      16.21289498       0.01751212      -0.00268029       0.01483182       0.40421065
Pt      -0.72138962     -16.21289498     -16.93428460       0.01751212      -0.01483182       0.00268029       0.40421065
Pt      16.95194072      -2.66799106      14.28394966      -0.00858234       0.02305545       0.01447311       0.40447303
Pt      -2.66799106      16.95194072      14.28394966       0.02305545      -0.00858234       0.01447311       0.40447303
Pt      -2.66799106     -14.28394966     -16.95194072       0.02305545      -0.01447311       0.00858234       0.40447303
Pt      16.96558274      -4.61187319      12.35370954      -0.01645271       0.02451696       0.00806425       0.40466101
Pt      -4.61187319      16.96558274      12.35370954       0.02451696      -0.01645271       0.00806425       0.40466101
Pt      -4.61187319     -12.35370954     -16.96558274       0.02451696      -0.00806425       0.01645271       0.40466101
Pt      16.97416376      -6.55203317      10.42213058      -0.02277801       0.02085136      -0.00192664       0.40476998
Pt      -6.55203317      16.97416376      10.42213058       0.02085136      -0.02277801      -0.00192664       0.40476998
Pt      -6.55203317     -10.42213058     -16.97416376       0.02085136       0.00192664       0.02277801       0.40476998
Pt      16.97709323      -8.48854661       8.48854661      -0.02516843       0.01258421      -0.01258421       0.40480427
Pt      -8.48854661      16.97709323       8.48854661       0.01258421      -0.02516843      -0.01258421       0.40480427
Pt      -8.48854661      -8.48854661     -16.97709323       0.01258421       0.01258421       0.02516843       0.40480427
Pt      16.97416376     -10.42213058       6.55203317      -0.02277801       0.00192664      -0.02085136       0.40476998
Pt     -10.42213058      16.97416376       6.55203317       0.00192664      -0.02277801      -0.02085136       0.40476998
Pt     -10.42213058      -6.55203317     -16.97416376       0.00192664       0.02085136       0.02277801       0.40476998
Pt      16.96558274     -12.35370954       4.61187319      -0.01645271      -0.00806425      -0.02451696       0.40466101
Pt     -12.35370954      16.96558274       4.61187319      -0.00806425      -0.01645271      -0.02451696       0.40466101
Pt     -12.35370954      -4.61187319     -16.96558274      -0.00806425       0.02451696       0.01645271       0.40466101
Pt      16.95194072     -14.28394966       2.66799106      -0.00858234      -0.01447311      -0.02305545       0.40447303
Pt     -14.28394966      16.95194072       2.66799106      -0.01447311      -0.00858234      -0.02305545       0.40447303
Pt     -14.28394966      -2.66799106     -16.95194072      -0.01447311       0.02305545       0.00858234       0.40447303
Pt      16.93428460     -16.21289498       0.72138962      -0.00268029      -0.01483182      -0.01751212       0.40421065
Pt     -16.21289498      16.93428460       0.72138962      -0.01483182      -0.00268029      -0.01751212       0.40421065
Pt     -16.21289498      -0.72138962     -16.93428460      -0.01483182       0.01751212       0.00268029       0.40421065
Pt      16.91408754     -18.13987264      -1.22578509      -0.00128531      -0.01174954      -0.01303484       0.40393725
Pt     -18.13987264      16.91408754      -1.22578509      -0.01174954      -0.00128531      -0.01303484       0.40393725
Pt     -18.13987264       1.22578509     -16.91408754      -0.01174954       0.01303484       0.00128531       0.40393725
Pt      16.89243343     -20.06445678      -3.17202335      -0.00539501      -0.00631774      -0.01171275       0.40373684
Pt     -20.06445678      16.89243343      -3.17202335      -0.00631774      -0.00539501      -0.01171275       0.40373684
Pt     -20.06445678       3.17202335     -16.89243343      -0.00631774       0.01171275       0.00539501       0.40373684
Pt      16.86947341     -21.98611561      -5.11664220      -0.01220556       0.00140424      -0.01080132       0.40355054
Pt     -21.98611561      16.86947341      -5.11664220       0.00140424      -0.01220556      -0.01080132       0.40355054
Pt     -21.98611561       5.11664220     -16.86947341       0.00140424       0.01080132       0.01220556       0.40355054
Pt      16.84355169     -23.90237320      -7.05882151      -0.01591937       0.00527815      -0.01064122       0.40316269
Pt     -23.90237320      16.84355169      -7.05882151       0.00527815      -0.01591937      -0.01064122       0.40316269
Pt     -23.90237320       7.05882151     -16.84355169       0.00527815       0.01064122       0.01591937       0.40316269
Pt      16.81711390     -25.81191967      -8.99480577      -0.01433228       0.00113195      -0.01320032       0.40247952
Pt     -25.81191967      16.81711390      -8.99480576       0.00113194      -0.01433229      -0.01320035       0.40247952
Pt     -25.81191967       8.99480576     -16.81711390       0.00113194       0.01320035       0.01433229       0.40247952
Pt      16.79629295     -27.72145159     -10.92515864      -0.01100240       0.00383115      -0.00717124       0.40195287
Pt     -27.72145159      16.79629295     -10.92515865       0.00383134      -0.01100240      -0.00717106       0.40195287
Pt     -27.72145159      10.92515865     -16.79629295       0.00383134       0.00717106       0.01100240       0.40195287
Pt      16.77697617     -29.62420095     -12.84722478       0.00351077      -0.00873855      -0.00522779       0.40336532
Pt     -29.62420095      16.77697615     -12.84722480      -0.00873859       0.00351143      -0.00522717       0.40336530
Pt     -29.62420095      12.84722480     -16.77697615      -0.00873859       0.00522717      -0.00351143       0.40336530
Pt      16.77907063     -31.53679355     -14.75772291      -0.00244997      -0.01729287      -0.01974284       0.43423402
Pt     -31.53679328      16.77907076     -14.75772252      -0.01730141      -0.00245404      -0.01975545       0.43423367
Pt     -31.53679328      14.75772252     -16.77907076      -0.01730141       0.01975545       0.00245404       0.43423367
Pt     -29.67931785      14.83965893     -14.83965893      -0.02509452       0.01254726      -0.01254726       0.01646295
Pt     -27.75309600      14.87034824     -12.88274776      -0.00122388       0.00980901       0.00858513       0.01764581
Pt     -27.75309600      12.88274776     -14.87034824      -0.00122388      -0.00858513      -0.00980901       0.01764581
Pt     -25.82933798      14.89547286     -10.93386512      -0.02133948       0.02243397       0.00109449       0.01870526
Pt     -25.82431653      12.91215827     -12.91215827      -0.00402310       0.00201155      -0.00201155       0.00123294
Pt     -25.82933798      10.93386512     -14.89547286      -0.02133948      -0.00109449      -0.02243397       0.01870526
Pt     -23.91100508      14.92691193      -8.98409315      -0.00637550       0.00961090       0.00323541       0.02095857
Pt     -23.89782974      12.93738807     -10.96044167       0.00129697      -0.00503636      -0.00373938       0.00214916
Pt     -23.89782974      10.96044167     -12.93738807       0.00129697       0.00373938       0.00503636       0.00214916
Pt     -23.91100508       8.98409315     -14.92691193      -0.00637550      -0.00323541      -0.00961090       0.02095857
Pt     -21.99365092      14.95997932      -7.03367161      -0.00560563      -0.00138643      -0.00699206       0.02255632
Pt     -21.97402464      12.97012169      -9.00390295       0.00148218      -0.01731564      -0.01583347       0.00159994
Pt     -21.96644443      10.98322222     -10.98322222      -0.01214245       0.00607122      -0.00607122       0.00255050
Pt     -21.97402464       9.00390295     -12.97012169       0.00148218       0.01583347       0.01731564       0.00159994
Pt     -21.99365092       7.03367161     -14.95997932      -0.00560563       0.00699206       0.00138643       0.02255632
Pt     -20.07259121      14.98671589      -5.08587532      -0.01161172       0.00503712      -0.00657460       0.02382725
Pt     -20.05128582      12.99976046      -7.05152536      -0.00512617      -0.01989589      -0.02502206       0.00170466
Pt     -20.03974687      11.01333321      -9.02641366      -0.00974243      -0.00144334      -0.01118577       0.00162781
Pt     -20.03974687       9.02641366     -11.01333321      -0.00974243       0.01118577       0.00144334       0.00162781
Pt     -20.05128582       7.05152536     -12.99976046      -0.00512617       0.02502206       0.01989589       0.00170466
Pt     -20.07259121       5.08587532     -14.98671589      -0.01161172       0.00657460      -0.00503712       0.02382725
Pt     -18.14963866      15.01059413      -3.13904453      -0.01541229       0.00573664      -0.00967565       0.02483902
Pt     -18.12793815      13.02443168      -5.10350647      -0.00590222      -0.01654646      -0.02244868       0.00206932
Pt     -18.11388905      11.03947753      -7.07441152      -0.01494889      -0.00258247      -0.01753136       0.00155794
Pt     -18.10865102       9.05432551      -9.05432551      -0.01148678       0.00574339      -0.00574339       0.00066354
Pt     -18.11388905       7.07441152     -11.03947753      -0.01494889       0.01753136       0.00258247       0.00155794
Pt     -18.12793815       5.10350647     -13.02443168      -0.00590222       0.02244868       0.01654646       0.00206932
Pt     -18.14963866       3.13904453     -15.01059413      -0.01541229       0.00967565      -0.00573664       0.02483902
Pt     -16.22573575      15.03256636      -1.19316939      -0.01694944       0.00662027      -0.01032916       0.02543617
Pt     -16.20489081      13.04715383      -3.15773698      -0.00651808      -0.01499091      -0.02150900       0.00226475
Pt     -16.18858178      11.06263769      -5.12594409      -0.01389367       0.00173333      -0.01216035       0.00161892
Pt     -16.17881899       9.07867146      -7.10014753      -0.01636726       0.00401265      -0.01235461       0.00072135
Pt     -16.17881899       7.10014753      -9.07867146      -0.01636726       0.01235461      -0.00401265       0.00072135
Pt     -16.18858178       5.12594409     -11.06263769      -0.01389367       0.01216035      -0.00173333       0.00161892
Pt     -16.20489081       3.15773698     -13.04715383      -0.00651808       0.02150900       0.01499091       0.00226475
Pt     -16.22573575       1.19316939     -15.03256636      -0.01694944       0.01032916      -0.00662027       0.02543617
Pt     -14.30031048      15.05181334       0.75150286      -0.01446581       0.00548682      -0.00897899       0.02552087
Pt     -14.28170265      13.06778590      -1.21391676       0.00160945      -0.01553183      -0.01392239       0.00223922
Pt     -14.26351459      11.08450890      -3.17900569      -0.01035328       0.00047422      -0.00987906       0.00153462
Pt     -14.25045856       9.10119858      -5.14925998      -0.01338957       0.00491517      -0.00847440       0.00074913
Pt     -14.24609826       7.12304913      -7.12304913      -0.01783550       0.00891775      -0.00891775       0.00081798
Pt     -14.25045856       5.14925998      -9.10119858      -0.01338957       0.00847440      -0.00491517       0.00074913
Pt     -14.26351459       3.17900569     -11.08450890      -0.01035328       0.00987906      -0.00047422       0.00153462
Pt     -14.28170265       1.21391676     -13.06778590       0.00160945       0.01392239       0.01553183       0.00223922
Pt     -14.30031048      -0.75150286     -15.05181334      -0.01446581       0.00897899      -0.00548682       0.02552087
Pt     -12.37271535      15.06713889       2.69442354      -0.00804901       0.00089285      -0.00715616       0.02511851
Pt     -12.35602426      13.08504197       0.72901771       0.01249165      -0.01834349      -0.00585184       0.00184296
Pt     -12.33712986      11.10409496      -1.23303490      -0.00199095      -0.00364971      -0.00564066       0.00131787
Pt     -12.32201071       9.12238888      -3.19962183      -0.00849317       0.00046224      -0.00803093       0.00058574
Pt     -12.31527934       7.14479885      -5.17048049      -0.01152940       0.00629023      -0.00523918       0.00075361
Pt     -12.31527934       5.17048049      -7.14479885      -0.01152940       0.00523918      -0.00629023       0.00075361
Pt     -12.32201071       3.19962183      -9.12238888      -0.00849317       0.00803093      -0.00046224       0.00058574
Pt     -12.33712986       1.23303490     -11.10409496      -0.00199095       0.00564066       0.00364971       0.00131787
Pt     -12.35602426      -0.72901771     -13.08504197       0.01249165       0.00585184       0.01834349       0.00184296
Pt     -12.37271535      -2.69442354     -15.06713889      -0.00804901       0.00715616      -0.00089285       0.02511851
Pt     -10.44240168      15.07764312       4.63524144      -0.00339285      -0.00297009      -0.00636294       0.02453048
Pt     -10.42611252      13.09784956       2.67173704       0.01591290      -0.02084660      -0.00493370       0.00133174
Pt     -10.40751488      11.11978956       0.71227468       0.00263199      -0.00722349      -0.00459150       0.00104383
Pt     -10.39161389       9.14043165      -1.25118224      -0.00359249      -0.00355610      -0.00714859       0.00035217
Pt     -10.38355625       7.16447418      -3.21908207      -0.00598665       0.00178243      -0.00420421       0.00044035
Pt     -10.38133538       5.19066769      -5.19066769      -0.00475704       0.00237852      -0.00237852       0.00048333
Pt     -10.38355625       3.21908207      -7.16447418      -0.00598665       0.00420421      -0.00178243       0.00044035
Pt     -10.39161389       1.25118224      -9.14043165      -0.00359249       0.00714859       0.00355610       0.00035217
Pt     -10.40751488      -0.71227468     -11.11978956       0.00263199       0.00459150       0.00722349       0.00104383
Pt     -10.42611252      -2.67173704     -13.09784956       0.01591290       0.00493370       0.02084660       0.00133174
Pt     -10.44240168      -4.63524144     -15.07764312      -0.00339285       0.00636294       0.00297009       0.02453048
Pt      -8.50937857      15.08300439       6.57362583       0.00094108      -0.00529462      -0.00435354       0.02415256
Pt      -8.49201545      13.10579154       4.61377609       0.01542134      -0.02295571      -0.00753437       0.00097386
Pt      -8.47441775      11.13087517       2.65645741       0.00508654      -0.01134819      -0.00626165       0.00089519
Pt      -8.45830891       9.15406178       0.69575287       0.00016149      -0.00700141      -0.00683993       0.00017006
Pt      -8.44909124       7.18014922      -1.26894202      -0.00133194      -0.00154335      -0.00287530       0.00012474
Pt      -8.44515655       5.20789913      -3.23725743       0.00007695      -0.00075550      -0.00067855       0.00004509
Pt      -8.44515655       3.23725743      -5.20789913       0.00007695       0.00067855       0.00075550       0.00004509
Pt      -8.44909124       1.26894202      -7.18014922      -0.00133194       0.00287530       0.00154335       0.00012474
Pt      -8.45830891      -0.69575287      -9.15406178       0.00016149       0.00683993       0.00700141       0.00017006
Pt      -8.47441775      -2.65645741     -11.13087517       0.00508654       0.00626165       0.01134819       0.00089519
Pt      -8.49201545      -4.61377609     -13.10579154       0.01542134       0.00753437       0.02295571       0.00097386
Pt      -8.50937857      -6.57362583     -15.08300439       0.00094108       0.00435354       0.00529462       0.02415256
Pt      -6.57362583      15.08300439       8.50937857       0.00435354      -0.00529462      -0.00094108       0.02415256
Pt      -6.55425272      13.10850544       6.55425272       0.01199270      -0.02398540      -0.01199270       0.00084249
Pt      -6.53807111      11.13666611       4.59859501       0.00712259      -0.01417951      -0.00705691       0.00084068
Pt      -6.52204237       9.16264538       2.64060301       0.00343323      -0.01003147      -0.00659824       0.00006701
Pt      -6.51128704       7.19095491       0.67966788       0.00122700      -0.00345873      -0.00223173      -0.00011686
Pt      -6.50531799       5.22054971      -1.28476828       0.00155329      -0.00182384      -0.00027055      -0.00028907
Pt      -6.50334985       3.25167492      -3.25167492       0.00141463      -0.00070732       0.00070732      -0.00036958
Pt      -6.50531799       1.28476828      -5.22054971       0.00155329       0.00027055       0.00182384      -0.00028907
Pt      -6.51128704      -0.67966788      -7.19095491       0.00122700       0.00223173       0.00345873      -0.00011686
Pt      -6.52204237      -2.64060301      -9.16264538       0.00343323       0.00659824       0.01003147       0.00006701
Pt      -6.53807111      -4.59859501     -11.13666611       0.00712259       0.00705691       0.01417951       0.00084068
Pt      -6.55425272      -6.55425272     -13.10850544       0.01199270       0.01199270       0.02398540       0.00084249
Pt      -6.57362583      -8.50937857     -15.08300439       0.00435354       0.00094108       0.00529462       0.02415256
Pt      -4.63524144      15.07764312      10.44240168       0.00636294      -0.00297009       0.00339285       0.02453048
Pt      -4.61377609      13.10579154       8.49201545       0.00753437      -0.02295571      -0.01542134       0.00097386
Pt      -4.59859501      11.13666611       6.53807111       0.00705691      -0.01417951      -0.00712259       0.00084068
Pt      -4.58278932       9.16557864       4.58278932       0.00553204      -0.01106409      -0.00553204       0.00003556
Pt      -4.57024343       7.19649301       2.62624957       0.00203988      -0.00429304      -0.00225317      -0.00024593
Pt      -4.56192367       5.22824061       0.66631693       0.00141857      -0.00179627      -0.00037770      -0.00048767
Pt      -4.55774744       3.26133421      -1.29641322       0.00062174      -0.00041505       0.00020669      -0.00059934
Pt      -4.55774744       1.29641322      -3.26133421       0.00062174      -0.00020669       0.00041505      -0.00059934
Pt      -4.56192367      -0.66631693      -5.22824061       0.00141857       0.00037770       0.00179627      -0.00048767
Pt      -4.57024343      -2.62624957      -7.19649301       0.00203988       0.00225317       0.00429304      -0.00024593
Pt      -4.58278932      -4.58278932      -9.16557864       0.00553204       0.00553204       0.01106409       0.00003556
Pt      -4.59859501      -6.53807111     -11.13666611       0.00705691       0.00712259       0.01417951       0.00084068
Pt      -4.61377609      -8.49201545     -13.10579154       0.00753437       0.01542134       0.02295571       0.00097386
Pt      -4.63524144     -10.44240168     -15.07764312       0.00636294      -0.00339285       0.00297009       0.02453048
Pt      -2.69442354      15.06713889      12.37271535       0.00715616       0.00089285       0.00804901       0.02511851
Pt      -2.67173704      13.09784956      10.42611252       0.00493370      -0.02084660      -0.01591290       0.00133174
Pt      -2.65645741      11.13087517       8.47441775       0.00626165      -0.01134819      -0.00508654       0.00089519
Pt      -2.64060301       9.16264538       6.52204237       0.00659824      -0.01003147      -0.00343323       0.00006701
Pt      -2.62624957       7.19649301       4.57024343       0.00225317      -0.00429304      -0.00203988      -0.00024593
Pt      -2.61541898       5.23083796       2.61541898       0.00090680      -0.00181360      -0.00090680      -0.00055572
Pt      -2.60889202       3.26617855       0.65728653       0.00025668      -0.00004477       0.00021191      -0.00070469
Pt      -2.60673115       1.30336558      -1.30336558      -0.00000417       0.00000209      -0.00000209      -0.00072752
Pt      -2.60889202      -0.65728653      -3.26617855       0.00025668      -0.00021191       0.00004477      -0.00070469
Pt      -2.61541898      -2.61541898      -5.23083796       0.00090680       0.00090680       0.00181360      -0.00055572
Pt      -2.62624957      -4.57024343      -7.19649301       0.00225317       0.00203988       0.00429304      -0.00024593
Pt      -2.64060301      -6.52204237      -9.16264538       0.00659824       0.00343323       0.01003147       0.00006701
Pt      -2.65645741      -8.47441775     -11.13087517       0.00626165       0.00508654       0.01134819       0.00089519
Pt      -2.67173704     -10.42611252     -13.09784956       0.00493370       0.01591290       0.02084660       0.00133174
Pt      -2.69442354     -12.37271535     -15.06713889       0.00715616      -0.00804901      -0.00089285       0.02511851
Pt      -0.75150286      15.05181334      14.30031048       0.00897899       0.00548682       0.01446581       0.02552087
Pt      -0.72901771      13.08504197      12.35602426       0.00585184      -0.01834349      -0.01249165       0.00184296
Pt      -0.71227468      11.11978956      10.40751488       0.00459150      -0.00722349      -0.00263199       0.00104383
Pt      -0.69575287       9.15406178       8.45830891       0.00683993      -0.00700141      -0.00016149       0.00017006
Pt      -0.67966788       7.19095491       6.51128704       0.00223173      -0.00345873      -0.00122700      -0.00011686
Pt      -0.66631693       5.22824061       4.56192367       0.00037770      -0.00179627      -0.00141857      -0.00048767
Pt      -0.65728653       3.26617855       2.60889202      -0.00021191      -0.00004477      -0.00025668      -0.00070469
Pt      -0.65283025       1.30566049       0.65283025      -0.00015578       0.00031157       0.00015578      -0.00076236
Pt      -0.65283025      -0.65283025      -1.30566049      -0.00015578      -0.00015578      -0.00031157      -0.00076236
Pt      -0.65728653      -2.60889202      -3.26617855      -0.00021191       0.00025668       0.00004477      -0.00070469
Pt      -0.66631693      -4.56192367      -5.22824061       0.00037770       0.00141857       0.00179627      -0.00048767
Pt      -0.67966788      -6.51128704      -7.19095491       0.00223173       0.00122700       0.00345873      -0.00011686
Pt      -0.69575287      -8.45830891      -9.15406178       0.00683993       0.00016149       0.00700141       0.00017006
Pt      -0.71227468     -10.40751488     -11.11978956       0.00459150       0.00263199       0.00722349       0.00104383
Pt      -0.72901771     -12.35602426     -13.08504197       0.00585184       0.01249165       0.01834349       0.00184296
Pt      -0.75150286     -14.30031048     -15.05181334       0.00897899      -0.01446581      -0.00548682       0.02552087
Pt       1.19316939      15.03256636      16.22573575       0.01032916       0.00662027       0.01694944       0.02543617
Pt       1.21391676      13.06778590      14.28170265       0.01392239      -0.01553183      -0.00160945       0.00223922
Pt       1.23303490      11.10409496      12.33712986       0.00564066      -0.00364971       0.00199095       0.00131787
Pt       1.25118224       9.14043165      10.39161389       0.00714859      -0.00355610       0.00359249       0.00035217
Pt       1.26894202       7.18014922       8.44909124       0.00287530      -0.00154335       0.00133194       0.00012474
Pt       1.28476828       5.22054971       6.50531799       0.00027055      -0.00182384      -0.00155329      -0.00028907
Pt       1.29641322       3.26133421       4.55774744      -0.00020669      -0.00041505      -0.00062174      -0.00059934
Pt       1.30336558       1.30336558       2.60673115       0.00000209       0.00000209       0.00000417      -0.00072752
Pt       1.30566049      -0.65283025       0.65283025       0.00031157      -0.00015578       0.00015578      -0.00076236
Pt       1.30336558      -2.60673115      -1.30336558       0.00000209      -0.00000417      -0.00000209      -0.00072752
Pt       1.29641322      -4.55774744      -3.26133421      -0.00020669       0.00062174       0.00041505      -0.00059934
Pt       1.28476828      -6.50531799      -5.22054971       0.00027055       0.00155329       0.00182384      -0.00028907
Pt       1.26894202      -8.44909124      -7.18014922       0.00287530      -0.00133194       0.00154335       0.00012474
Pt       1.25118224     -10.39161389      -9.14043165       0.00714859      -0.00359249       0.00355610       0.00035217
Pt       1.23303490     -12.33712986     -11.10409496       0.00564066      -0.00199095       0.00364971       0.00131787
Pt       1.21391676     -14.28170265     -13.06778590       0.01392239       0.00160945       0.01553183       0.00223922
Pt       1.19316939     -16.22573575     -15.03256636       0.01032916      -0.01694944      -0.00662027       0.02543617
Pt       3.13904453      15.01059413      18.14963866       0.00967565       0.00573664       0.01541229       0.02483902