1037
Properties=species:S:1:pos:R:3:energies:R:1:forces:R:3 energy=280.31379981665475 free_energy=280.31379981665475 pbc="F F F"
Ag      -0.00000000       0.00000000       0.00000000       0.14345963      -0.00000000       0.00000000       0.00000000
Ag      -1.45000000       2.34614928       0.00000000       0.05542510       0.31659571      -0.51226263      -0.00000000
Ag       1.45000000       2.34614928       0.00000000       0.05542510      -0.31659571      -0.51226263       0.00000000
Ag      -1.45000000      -2.34614928       0.00000000       0.05542510       0.31659571       0.51226263      -0.00000000
Ag       1.45000000      -2.34614928       0.00000000       0.05542510      -0.31659571       0.51226263      -0.00000000
Ag      -0.00000000      -1.45000000       2.34614928       0.05542510      -0.00000000       0.31659571      -0.51226263
Ag      -0.00000000       1.45000000       2.34614928       0.05542510       0.00000000      -0.31659571      -0.51226263
Ag      -0.00000000      -1.45000000      -2.34614928       0.05542510      -0.00000000       0.31659571       0.51226263
Ag      -0.00000000       1.45000000      -2.34614928       0.05542510       0.00000000      -0.31659571       0.51226263
Ag       2.34614928       0.00000000      -1.45000000       0.05542510      -0.51226263      -0.00000000       0.31659571
Ag       2.34614928       0.00000000       1.45000000       0.05542510      -0.51226263       0.00000000      -0.31659571
Ag      -2.34614928       0.00000000      -1.45000000       0.05542510       0.51226263       0.00000000       0.31659571
Ag      -2.34614928       0.00000000       1.45000000       0.05542510       0.51226263      -0.00000000      -0.31659571
Ag      -2.90000000       4.69229857       0.00000000       0.05630886       0.31077211      -0.50283984      -0.00000000
Ag       2.90000000       4.69229857       0.00000000       0.05630886      -0.31077211      -0.50283984       0.00000000
Ag      -2.90000000      -4.69229857       0.00000000       0.05630886       0.31077211       0.50283984       0.00000000
Ag       2.90000000      -4.69229857       0.00000000       0.05630886      -0.31077211       0.50283984       0.00000000
Ag      -0.00000000      -2.90000000       4.69229857       0.05630886       0.00000000       0.31077211      -0.50283984
Ag      -0.00000000       2.90000000       4.69229857       0.05630886       0.00000000      -0.31077211      -0.50283984
Ag      -0.00000000      -2.90000000      -4.69229857       0.05630886       0.00000000       0.31077211       0.50283984
Ag      -0.00000000       2.90000000      -4.69229857       0.05630886      -0.00000000      -0.31077211       0.50283984
Ag       4.69229857       0.00000000      -2.90000000       0.05630886      -0.50283984      -0.00000000       0.31077211
Ag       4.69229857       0.00000000       2.90000000       0.05630886      -0.50283984       0.00000000      -0.31077211
Ag      -4.69229857       0.00000000      -2.90000000       0.05630886       0.50283984       0.00000000       0.31077211
Ag      -4.69229857       0.00000000       2.90000000       0.05630886       0.50283984       0.00000000      -0.31077211
Ag      -0.00000000       4.69229857       0.00000000       0.04072030       0.00000000      -0.28301746       0.00000000
Ag      -0.00000000      -4.69229857       0.00000000       0.04072030       0.00000000       0.28301746      -0.00000000
Ag      -1.45000000      -3.79614928       2.34614928       0.04072030       0.08745720       0.22896593      -0.14150873
Ag       1.45000000      -3.79614928       2.34614928       0.04072030      -0.08745720       0.22896593      -0.14150873
Ag      -1.45000000       3.79614928       2.34614928       0.04072030       0.08745720      -0.22896593      -0.14150873
Ag       1.45000000       3.79614928       2.34614928       0.04072030      -0.08745720      -0.22896593      -0.14150873
Ag      -0.00000000       0.00000000       4.69229857       0.04072030       0.00000000       0.00000000      -0.28301746
Ag      -1.45000000      -3.79614928      -2.34614928       0.04072030       0.08745720       0.22896593       0.14150873
Ag       1.45000000      -3.79614928      -2.34614928       0.04072030      -0.08745720       0.22896593       0.14150873
Ag      -1.45000000       3.79614928      -2.34614928       0.04072030       0.08745720      -0.22896593       0.14150873
Ag       1.45000000       3.79614928      -2.34614928       0.04072030      -0.08745720      -0.22896593       0.14150873
Ag      -0.00000000       0.00000000      -4.69229857       0.04072030       0.00000000      -0.00000000       0.28301746
Ag       3.79614928       2.34614928      -1.45000000       0.04072030      -0.22896593      -0.14150873       0.08745720
Ag       3.79614928      -2.34614928      -1.45000000       0.04072030      -0.22896593       0.14150873       0.08745720
Ag       2.34614928      -1.45000000      -3.79614928       0.04072030      -0.14150873       0.08745720       0.22896593
Ag       2.34614928       1.45000000      -3.79614928       0.04072030      -0.14150873      -0.08745720       0.22896593
Ag       3.79614928       2.34614928       1.45000000       0.04072030      -0.22896593      -0.14150873      -0.08745720
Ag       3.79614928      -2.34614928       1.45000000       0.04072030      -0.22896593       0.14150873      -0.08745720
Ag       2.34614928      -1.45000000       3.79614928       0.04072030      -0.14150873       0.08745720      -0.22896593
Ag       2.34614928       1.45000000       3.79614928       0.04072030      -0.14150873      -0.08745720      -0.22896593
Ag       4.69229857       0.00000000       0.00000000       0.04072030      -0.28301746      -0.00000000       0.00000000
Ag      -3.79614928       2.34614928      -1.45000000       0.04072030       0.22896593      -0.14150873       0.08745720
Ag      -3.79614928      -2.34614928      -1.45000000       0.04072030       0.22896593       0.14150873       0.08745720
Ag      -2.34614928      -1.45000000      -3.79614928       0.04072030       0.14150873       0.08745720       0.22896593
Ag      -2.34614928       1.45000000      -3.79614928       0.04072030       0.14150873      -0.08745720       0.22896593
Ag      -3.79614928       2.34614928       1.45000000       0.04072030       0.22896593      -0.14150873      -0.08745720
Ag      -3.79614928      -2.34614928       1.45000000       0.04072030       0.22896593       0.14150873      -0.08745720
Ag      -2.34614928      -1.45000000       3.79614928       0.04072030       0.14150873       0.08745720      -0.22896593
Ag      -2.34614928       1.45000000       3.79614928       0.04072030       0.14150873      -0.08745720      -0.22896593
Ag      -4.69229857       0.00000000       0.00000000       0.04072030       0.28301746       0.00000000      -0.00000000
Ag      -4.35000000       7.03844785       0.00000000       0.11531877       0.14520304      -0.23494346      -0.00000000
Ag       4.35000000       7.03844785       0.00000000       0.11531877      -0.14520304      -0.23494346       0.00000000
Ag      -4.35000000      -7.03844785       0.00000000       0.11531877       0.14520304       0.23494346      -0.00000000
Ag       4.35000000      -7.03844785       0.00000000       0.11531877      -0.14520304       0.23494346       0.00000000
Ag      -0.00000000      -4.35000000       7.03844785       0.11531877      -0.00000000       0.14520304      -0.23494346
Ag      -0.00000000       4.35000000       7.03844785       0.11531877      -0.00000000      -0.14520304      -0.23494346
Ag      -0.00000000      -4.35000000      -7.03844785       0.11531877       0.00000000       0.14520304       0.23494346
Ag      -0.00000000       4.35000000      -7.03844785       0.11531877      -0.00000000      -0.14520304       0.23494346
Ag       7.03844785       0.00000000      -4.35000000       0.11531877      -0.23494346       0.00000000       0.14520304
Ag       7.03844785       0.00000000       4.35000000       0.11531877      -0.23494346      -0.00000000      -0.14520304
Ag      -7.03844785       0.00000000      -4.35000000       0.11531877       0.23494346       0.00000000       0.14520304
Ag      -7.03844785       0.00000000       4.35000000       0.11531877       0.23494346       0.00000000      -0.14520304
Ag       1.45000000       7.03844785       0.00000000       0.04117845       0.01694229      -0.26589907       0.00000000
Ag       1.45000000      -7.03844785       0.00000000       0.04117845       0.01694229       0.26589907       0.00000000
Ag      -1.45000000      -5.24614928       4.69229857       0.04117845       0.09063848       0.22035232      -0.11924293
Ag       1.45000000      -5.24614928       4.69229857       0.04117845      -0.09063848       0.22035232      -0.11924293
Ag      -1.45000000       5.24614928       4.69229857       0.04117845       0.09063848      -0.22035232      -0.11924293
Ag       1.45000000       5.24614928       4.69229857       0.04117845      -0.09063848      -0.22035232      -0.11924293
Ag      -0.00000000       1.45000000       7.03844785       0.04117845       0.00000000       0.01694229      -0.26589907
Ag      -1.45000000      -5.24614928      -4.69229857       0.04117845       0.09063848       0.22035232       0.11924293
Ag       1.45000000      -5.24614928      -4.69229857       0.04117845      -0.09063848       0.22035232       0.11924293
Ag      -1.45000000       5.24614928      -4.69229857       0.04117845       0.09063848      -0.22035232       0.11924293
Ag       1.45000000       5.24614928      -4.69229857       0.04117845      -0.09063848      -0.22035232       0.11924293
Ag      -0.00000000       1.45000000      -7.03844785       0.04117845       0.00000000       0.01694229       0.26589907
Ag       6.14229857       2.34614928      -2.90000000       0.04117845      -0.20988141      -0.14665613       0.07369619
Ag       6.14229857      -2.34614928      -2.90000000       0.04117845      -0.20988141       0.14665613       0.07369619
Ag       4.69229857      -1.45000000      -5.24614928       0.04117845      -0.11924293       0.09063848       0.22035232
Ag       4.69229857       1.45000000      -5.24614928       0.04117845      -0.11924293      -0.09063848       0.22035232
Ag       6.14229857       2.34614928       2.90000000       0.04117845      -0.20988141      -0.14665613      -0.07369619
Ag       6.14229857      -2.34614928       2.90000000       0.04117845      -0.20988141       0.14665613      -0.07369619
Ag       4.69229857      -1.45000000       5.24614928       0.04117845      -0.11924293       0.09063848      -0.22035232
Ag       4.69229857       1.45000000       5.24614928       0.04117845      -0.11924293      -0.09063848      -0.22035232
Ag       7.03844785       0.00000000       1.45000000       0.04117845      -0.26589907       0.00000000       0.01694229
Ag      -6.14229857       2.34614928      -2.90000000       0.04117845       0.20988141      -0.14665613       0.07369619
Ag      -6.14229857      -2.34614928      -2.90000000       0.04117845       0.20988141       0.14665613       0.07369619
Ag      -4.69229857      -1.45000000      -5.24614928       0.04117845       0.11924293       0.09063848       0.22035232
Ag      -4.69229857       1.45000000      -5.24614928       0.04117845       0.11924293      -0.09063848       0.22035232
Ag      -6.14229857       2.34614928       2.90000000       0.04117845       0.20988141      -0.14665613      -0.07369619
Ag      -6.14229857      -2.34614928       2.90000000       0.04117845       0.20988141       0.14665613      -0.07369619
Ag      -4.69229857      -1.45000000       5.24614928       0.04117845       0.11924293       0.09063848      -0.22035232
Ag      -4.69229857       1.45000000       5.24614928       0.04117845       0.11924293      -0.09063848      -0.22035232
Ag      -7.03844785       0.00000000       1.45000000       0.04117845       0.26589907       0.00000000       0.01694229
Ag      -1.45000000       7.03844785       0.00000000       0.04117845      -0.01694229      -0.26589907       0.00000000
Ag      -1.45000000      -7.03844785       0.00000000       0.04117845      -0.01694229       0.26589907      -0.00000000
Ag      -2.90000000      -6.14229857       2.34614928       0.04117845       0.07369619       0.20988141      -0.14665613
Ag       2.90000000      -6.14229857       2.34614928       0.04117845      -0.07369619       0.20988141      -0.14665613
Ag      -2.90000000       6.14229857       2.34614928       0.04117845       0.07369619      -0.20988141      -0.14665613
Ag       2.90000000       6.14229857       2.34614928       0.04117845      -0.07369619      -0.20988141      -0.14665613
Ag      -0.00000000      -1.45000000       7.03844785       0.04117845       0.00000000      -0.01694229      -0.26589907
Ag      -2.90000000      -6.14229857      -2.34614928       0.04117845       0.07369619       0.20988141       0.14665613
Ag       2.90000000      -6.14229857      -2.34614928       0.04117845      -0.07369619       0.20988141       0.14665613
Ag      -2.90000000       6.14229857      -2.34614928       0.04117845       0.07369619      -0.20988141       0.14665613
Ag       2.90000000       6.14229857      -2.34614928       0.04117845      -0.07369619      -0.20988141       0.14665613
Ag      -0.00000000      -1.45000000      -7.03844785       0.04117845       0.00000000      -0.01694229       0.26589907
Ag       5.24614928       4.69229857      -1.45000000       0.04117845      -0.22035232      -0.11924293       0.09063848
Ag       5.24614928      -4.69229857      -1.45000000       0.04117845      -0.22035232       0.11924293       0.09063848
Ag       2.34614928      -2.90000000      -6.14229857       0.04117845      -0.14665613       0.07369619       0.20988141
Ag       2.34614928       2.90000000      -6.14229857       0.04117845      -0.14665613      -0.07369619       0.20988141
Ag       5.24614928       4.69229857       1.45000000       0.04117845      -0.22035232      -0.11924293      -0.09063848
Ag       5.24614928      -4.69229857       1.45000000       0.04117845      -0.22035232       0.11924293      -0.09063848
Ag       2.34614928      -2.90000000       6.14229857       0.04117845      -0.14665613       0.07369619      -0.20988141
Ag       2.34614928       2.90000000       6.14229857       0.04117845      -0.14665613      -0.07369619      -0.20988141
Ag       7.03844785       0.00000000      -1.45000000       0.04117845      -0.26589907       0.00000000      -0.01694229
Ag      -5.24614928       4.69229857      -1.45000000       0.04117845       0.22035232      -0.11924293       0.09063848
Ag      -5.24614928      -4.69229857      -1.45000000       0.04117845       0.22035232       0.11924293       0.09063848
Ag      -2.34614928      -2.90000000      -6.14229857       0.04117845       0.14665613       0.07369619       0.20988141
Ag      -2.34614928       2.90000000      -6.14229857       0.04117845       0.14665613      -0.07369619       0.20988141
Ag      -5.24614928       4.69229857       1.45000000       0.04117845       0.22035232      -0.11924293      -0.09063848
Ag      -5.24614928      -4.69229857       1.45000000       0.04117845       0.22035232       0.11924293      -0.09063848
Ag      -2.34614928      -2.90000000       6.14229857       0.04117845       0.14665613       0.07369619      -0.20988141
Ag      -2.34614928       2.90000000       6.14229857       0.04117845       0.14665613      -0.07369619      -0.20988141
Ag      -7.03844785       0.00000000      -1.45000000       0.04117845       0.26589907       0.00000000      -0.01694229
Ag      -0.00000000       6.14229857      -2.34614928       0.04178805       0.00000000      -0.00339407       0.00129642
Ag       3.79614928       3.79614928      -3.79614928       0.04178805      -0.00209765      -0.00209765       0.00209765
Ag       2.34614928       0.00000000      -6.14229857       0.04178805      -0.00129642      -0.00000000       0.00339407
Ag      -2.34614928       0.00000000      -6.14229857       0.04178805       0.00129642       0.00000000       0.00339407
Ag      -3.79614928       3.79614928      -3.79614928       0.04178805       0.00209765      -0.00209765       0.00209765
Ag      -3.79614928       3.79614928       3.79614928       0.04178805       0.00209765      -0.00209765      -0.00209765
Ag      -0.00000000       6.14229857       2.34614928       0.04178805       0.00000000      -0.00339407      -0.00129642
Ag       3.79614928       3.79614928       3.79614928       0.04178805      -0.00209765      -0.00209765      -0.00209765
Ag       6.14229857       2.34614928       0.00000000       0.04178805      -0.00339407      -0.00129642       0.00000000
Ag       6.14229857      -2.34614928       0.00000000       0.04178805      -0.00339407       0.00129642      -0.00000000
Ag       3.79614928      -3.79614928      -3.79614928       0.04178805      -0.00209765       0.00209765       0.00209765
Ag      -0.00000000      -6.14229857      -2.34614928       0.04178805      -0.00000000       0.00339407       0.00129642
Ag      -3.79614928      -3.79614928      -3.79614928       0.04178805       0.00209765       0.00209765       0.00209765
Ag      -6.14229857      -2.34614928       0.00000000       0.04178805       0.00339407       0.00129642      -0.00000000
Ag      -6.14229857       2.34614928       0.00000000       0.04178805       0.00339407      -0.00129642       0.00000000
Ag      -0.00000000      -6.14229857       2.34614928       0.04178805       0.00000000       0.00339407      -0.00129642
Ag       3.79614928      -3.79614928       3.79614928       0.04178805      -0.00209765       0.00209765      -0.00209765
Ag       2.34614928       0.00000000       6.14229857       0.04178805      -0.00129642       0.00000000      -0.00339407
Ag      -2.34614928       0.00000000       6.14229857       0.04178805       0.00129642      -0.00000000      -0.00339407
Ag      -3.79614928      -3.79614928       3.79614928       0.04178805       0.00209765       0.00209765      -0.00209765
Ag       2.90000000       9.38459713       0.00000000       0.18168661       0.10445921      -0.05086100       0.00000000
Ag       2.90000000      -9.38459713       0.00000000       0.18168661       0.10445921       0.05086100      -0.00000000
Ag      -1.45000000      -6.69614928       7.03844785       0.18168661       0.06794652       0.07342708       0.05907877
Ag       1.45000000      -6.69614928       7.03844785       0.18168661      -0.06794652       0.07342708       0.05907877
Ag      -1.45000000       6.69614928       7.03844785       0.18168661       0.06794652      -0.07342708       0.05907877
Ag       1.45000000       6.69614928       7.03844785       0.18168661      -0.06794652      -0.07342708       0.05907877
Ag      -0.00000000       2.90000000       9.38459713       0.18168661       0.00000000       0.10445921      -0.05086100
Ag      -1.45000000      -6.69614928      -7.03844785       0.18168661       0.06794652       0.07342708      -0.05907877
Ag       1.45000000      -6.69614928      -7.03844785       0.18168661      -0.06794652       0.07342708      -0.05907877
Ag      -1.45000000       6.69614928      -7.03844785       0.18168661       0.06794652      -0.07342708      -0.05907877
Ag       1.45000000       6.69614928      -7.03844785       0.18168661      -0.06794652      -0.07342708      -0.05907877
Ag      -0.00000000       2.90000000      -9.38459713       0.18168661      -0.00000000       0.10445921       0.05086100
Ag       8.48844785       2.34614928      -4.35000000       0.18168661      -0.00886774      -0.10993977      -0.03651269
Ag       8.48844785      -2.34614928      -4.35000000       0.18168661      -0.00886774       0.10993977      -0.03651269
Ag       7.03844785      -1.45000000      -6.69614928       0.18168661       0.05907877       0.06794652       0.07342708
Ag       7.03844785       1.45000000      -6.69614928       0.18168661       0.05907877      -0.06794652       0.07342708
Ag       8.48844785       2.34614928       4.35000000       0.18168661      -0.00886774      -0.10993977       0.03651269
Ag       8.48844785      -2.34614928       4.35000000       0.18168661      -0.00886774       0.10993977       0.03651269
Ag       7.03844785      -1.45000000       6.69614928       0.18168661       0.05907877       0.06794652      -0.07342708
Ag       7.03844785       1.45000000       6.69614928       0.18168661       0.05907877      -0.06794652      -0.07342708
Ag       9.38459713       0.00000000       2.90000000       0.18168661      -0.05086100      -0.00000000       0.10445921
Ag      -8.48844785       2.34614928      -4.35000000       0.18168661       0.00886774      -0.10993977      -0.03651269
Ag      -8.48844785      -2.34614928      -4.35000000       0.18168661       0.00886774       0.10993977      -0.03651269
Ag      -7.03844785      -1.45000000      -6.69614928       0.18168661      -0.05907877       0.06794652       0.07342708
Ag      -7.03844785       1.45000000      -6.69614928       0.18168661      -0.05907877      -0.06794652       0.07342708
Ag      -8.48844785       2.34614928       4.35000000       0.18168661       0.00886774      -0.10993977       0.03651269
Ag      -8.48844785      -2.34614928       4.35000000       0.18168661       0.00886774       0.10993977       0.03651269
Ag      -7.03844785      -1.45000000       6.69614928       0.18168661      -0.05907877       0.06794652      -0.07342708
Ag      -7.03844785       1.45000000       6.69614928       0.18168661      -0.05907877      -0.06794652      -0.07342708
Ag      -9.38459713       0.00000000       2.90000000       0.18168661       0.05086100       0.00000000       0.10445921
Ag      -0.00000000       9.38459713       0.00000000       0.04163662       0.00000000      -0.24815277      -0.00000000
Ag      -0.00000000      -9.38459713       0.00000000       0.04163662       0.00000000       0.24815277      -0.00000000
Ag      -2.90000000      -7.59229857       4.69229857       0.04163662       0.07668342       0.20075981      -0.12407639
Ag       2.90000000      -7.59229857       4.69229857       0.04163662      -0.07668342       0.20075981      -0.12407639
Ag      -2.90000000       7.59229857       4.69229857       0.04163662       0.07668342      -0.20075981      -0.12407639
Ag       2.90000000       7.59229857       4.69229857       0.04163662      -0.07668342      -0.20075981      -0.12407639
Ag      -0.00000000       0.00000000       9.38459713       0.04163662      -0.00000000      -0.00000000      -0.24815277
Ag      -2.90000000      -7.59229857      -4.69229857       0.04163662       0.07668342       0.20075981       0.12407639
Ag       2.90000000      -7.59229857      -4.69229857       0.04163662      -0.07668342       0.20075981       0.12407639
Ag      -2.90000000       7.59229857      -4.69229857       0.04163662       0.07668342      -0.20075981       0.12407639
Ag       2.90000000       7.59229857      -4.69229857       0.04163662      -0.07668342      -0.20075981       0.12407639
Ag      -0.00000000       0.00000000      -9.38459713       0.04163662      -0.00000000      -0.00000000       0.24815277
Ag       7.59229857       4.69229857      -2.90000000       0.04163662      -0.20075981      -0.12407639       0.07668342
Ag       7.59229857      -4.69229857      -2.90000000       0.04163662      -0.20075981       0.12407639       0.07668342
Ag       4.69229857      -2.90000000      -7.59229857       0.04163662      -0.12407639       0.07668342       0.20075981
Ag       4.69229857       2.90000000      -7.59229857       0.04163662      -0.12407639      -0.07668342       0.20075981
Ag       7.59229857       4.69229857       2.90000000       0.04163662      -0.20075981      -0.12407639      -0.07668342
Ag       7.59229857      -4.69229857       2.90000000       0.04163662      -0.20075981       0.12407639      -0.07668342
Ag       4.69229857      -2.90000000       7.59229857       0.04163662      -0.12407639       0.07668342      -0.20075981
Ag       4.69229857       2.90000000       7.59229857       0.04163662      -0.12407639      -0.07668342      -0.20075981
Ag       9.38459713       0.00000000       0.00000000       0.04163662      -0.24815277      -0.00000000      -0.00000000
Ag      -7.59229857       4.69229857      -2.90000000       0.04163662       0.20075981      -0.12407639       0.07668342
Ag      -7.59229857      -4.69229857      -2.90000000       0.04163662       0.20075981       0.12407639       0.07668342
Ag      -4.69229857      -2.90000000      -7.59229857       0.04163662       0.12407639       0.07668342       0.20075981
Ag      -4.69229857       2.90000000      -7.59229857       0.04163662       0.12407639      -0.07668342       0.20075981
Ag      -7.59229857       4.69229857       2.90000000       0.04163662       0.20075981      -0.12407639      -0.07668342
Ag      -7.59229857      -4.69229857       2.90000000       0.04163662       0.20075981       0.12407639      -0.07668342
Ag      -4.69229857      -2.90000000       7.59229857       0.04163662       0.12407639       0.07668342      -0.20075981
Ag      -4.69229857       2.90000000       7.59229857       0.04163662       0.12407639      -0.07668342      -0.20075981
Ag      -9.38459713       0.00000000       0.00000000       0.04163662       0.24815277       0.00000000       0.00000000
Ag      -2.90000000       9.38459713       0.00000000       0.18168661      -0.10445921      -0.05086100       0.00000000
Ag      -2.90000000      -9.38459713       0.00000000       0.18168661      -0.10445921       0.05086100      -0.00000000
Ag      -4.35000000      -8.48844785       2.34614928       0.18168661      -0.03651269       0.00886774      -0.10993977
Ag       4.35000000      -8.48844785       2.34614928       0.18168661       0.03651269       0.00886774      -0.10993977
Ag      -4.35000000       8.48844785       2.34614928       0.18168661      -0.03651269      -0.00886774      -0.10993977
Ag       4.35000000       8.48844785       2.34614928       0.18168661       0.03651269      -0.00886774      -0.10993977
Ag      -0.00000000      -2.90000000       9.38459713       0.18168661      -0.00000000      -0.10445921      -0.05086100
Ag      -4.35000000      -8.48844785      -2.34614928       0.18168661      -0.03651269       0.00886774       0.10993977
Ag       4.35000000      -8.48844785      -2.34614928       0.18168661       0.03651269       0.00886774       0.10993977
Ag      -4.35000000       8.48844785      -2.34614928       0.18168661      -0.03651269      -0.00886774       0.10993977
Ag       4.35000000       8.48844785      -2.34614928       0.18168661       0.03651269      -0.00886774       0.10993977
Ag      -0.00000000      -2.90000000      -9.38459713       0.18168661       0.00000000      -0.10445921       0.05086100
Ag       6.69614928       7.03844785      -1.45000000       0.18168661      -0.07342708       0.05907877       0.06794652
Ag       6.69614928      -7.03844785      -1.45000000       0.18168661      -0.07342708      -0.05907877       0.06794652
Ag       2.34614928      -4.35000000      -8.48844785       0.18168661      -0.10993977      -0.03651269       0.00886774
Ag       2.34614928       4.35000000      -8.48844785       0.18168661      -0.10993977       0.03651269       0.00886774
Ag       6.69614928       7.03844785       1.45000000       0.18168661      -0.07342708       0.05907877      -0.06794652
Ag       6.69614928      -7.03844785       1.45000000       0.18168661      -0.07342708      -0.05907877      -0.06794652
Ag       2.34614928      -4.35000000       8.48844785       0.18168661      -0.10993977      -0.03651269      -0.00886774
Ag       2.34614928       4.35000000       8.48844785       0.18168661      -0.10993977       0.03651269      -0.00886774
Ag       9.38459713       0.00000000      -2.90000000       0.18168661      -0.05086100      -0.00000000      -0.10445921
Ag      -6.69614928       7.03844785      -1.45000000       0.18168661       0.07342708       0.05907877       0.06794652
Ag      -6.69614928      -7.03844785      -1.45000000       0.18168661       0.07342708      -0.05907877       0.06794652
Ag      -2.34614928      -4.35000000      -8.48844785       0.18168661       0.10993977      -0.03651269       0.00886774
Ag      -2.34614928       4.35000000      -8.48844785       0.18168661       0.10993977       0.03651269       0.00886774
Ag      -6.69614928       7.03844785       1.45000000       0.18168661       0.07342708       0.05907877      -0.06794652
Ag      -6.69614928      -7.03844785       1.45000000       0.18168661       0.07342708      -0.05907877      -0.06794652
Ag      -2.34614928      -4.35000000       8.48844785       0.18168661       0.10993977      -0.03651269      -0.00886774
Ag      -2.34614928       4.35000000       8.48844785       0.18168661       0.10993977       0.03651269      -0.00886774
Ag      -9.38459713       0.00000000      -2.90000000       0.18168661       0.05086100       0.00000000      -0.10445921
Ag      -1.45000000       8.48844785      -2.34614928       0.04386577      -0.03155566       0.02650066       0.00938012
Ag      -0.00000000       7.59229857      -4.69229857       0.04386577       0.00000000       0.00699819      -0.04167801
Ag       1.45000000       8.48844785      -2.34614928       0.04386577       0.03155566       0.02650066       0.00938012
Ag       5.24614928       6.14229857      -3.79614928       0.04386577       0.01637831       0.03588078       0.01517735
Ag       3.79614928       5.24614928      -6.14229857       0.04386577      -0.01517735       0.01637831      -0.03588078
Ag       6.14229857       3.79614928      -5.24614928       0.04386577       0.03588078      -0.01517735      -0.01637831
Ag       4.69229857       0.00000000      -7.59229857       0.04386577       0.04167801       0.00000000      -0.00699819